# vtk DataFile Version 3.0
Scalar Field
ASCII
DATASET RECTILINEAR_GRID
DIMENSIONS 100 26 1
X_COORDINATES 100 double
0.050000 0.150000 0.250000 0.350000 0.450000 0.550000 0.650000 0.750000 0.850000 0.950000 1.050000 1.150000 1.250000 1.350000 1.450000 1.550000 1.650000 1.750000 1.850000 1.950000 2.050000 2.150000 2.250000 2.350000 2.450000 2.550000 2.650000 2.750000 2.850000 2.950000 3.050000 3.150000 3.250000 3.350000 3.450000 3.550000 3.650000 3.750000 3.850000 3.950000 4.050000 4.150000 4.250000 4.350000 4.450000 4.550000 4.650000 4.750000 4.850000 4.950000 5.050000 5.150000 5.250000 5.350000 5.450000 5.550000 5.650000 5.750000 5.850000 5.950000 6.050000 6.150000 6.250000 6.350000 6.450000 6.550000 6.650000 6.750000 6.850000 6.950000 7.050000 7.150000 7.250000 7.350000 7.450000 7.550000 7.650000 7.750000 7.850000 7.950000 8.050000 8.150000 8.250000 8.350000 8.450000 8.550000 8.650000 8.750000 8.850000 8.950000 9.050000 9.150000 9.250000 9.350000 9.450000 9.550000 9.650000 9.750000 9.850000 9.950000 
Y_COORDINATES 26 double
0.050000 0.150000 0.250000 0.350000 0.450000 0.550000 0.650000 0.750000 0.850000 0.950000 1.050000 1.150000 1.250000 1.350000 1.450000 1.550000 1.650000 1.750000 1.850000 1.950000 2.050000 2.150000 2.250000 2.350000 2.450000 2.550000 
Z_COORDINATES 1 double
0.0
POINT_DATA 2600
SCALARS Skalarfeld double 1
LOOKUP_TABLE default
0.179696
0.175884
0.167902
0.155365
0.138065
0.115941
0.089157
0.058213
0.024054
-0.011907
-0.047905
-0.082111
-0.112949
-0.139302
-0.160596
-0.176766
-0.188168
-0.195465
-0.199502
-0.201176
-0.201308
-0.200514
-0.199097
-0.197000
-0.193844
-0.188960
-0.181794
-0.172005
-0.159565
-0.144763
-0.128139
-0.110382
-0.092218
-0.074321
-0.057242
-0.041374
-0.026934
-0.013970
-0.002385
0.008040
0.017596
0.026593
0.035268
0.043910
0.052509
0.060628
0.067588
0.072521
0.074522
0.072852
0.067206
0.057952
0.046237
0.033817
0.022609
0.014074
0.009317
0.008201
0.010054
0.013918
0.018774
0.023712
0.028060
0.031431
0.033730
0.035107
0.035881
0.036446
0.037144
0.038145
0.039513
0.041264
0.043055
0.044639
0.045846
0.046552
0.046649
0.046018
0.044524
0.042039
0.038499
0.033984
0.028764
0.023286
0.018060
0.013510
0.009971
0.007248
0.004958
0.002585
-0.000419
-0.004521
-0.010011
-0.016955
-0.025213
-0.034524
-0.044625
-0.055357
-0.066711
-0.080856
0.182926
0.179976
0.172227
0.159646
0.142067
0.119381
0.091683
0.059441
0.023656
-0.014086
-0.051734
-0.087208
-0.118799
-0.145384
-0.166457
-0.182054
-0.192643
-0.198998
-0.202081
-0.202909
-0.202425
-0.201340
-0.199997
-0.198282
-0.195686
-0.191434
-0.184763
-0.175244
-0.162832
-0.147847
-0.130891
-0.112716
-0.094106
-0.075773
-0.058294
-0.042075
-0.027337
-0.014128
-0.002343
0.008240
0.017925
0.027047
0.035939
0.044659
0.053049
0.060771
0.067208
0.071566
0.073011
0.070856
0.064795
0.055142
0.042966
0.030002
0.018293
0.009678
0.004910
0.003956
0.006129
0.010416
0.015738
0.021146
0.025941
0.029727
0.032411
0.034148
0.035264
0.036149
0.037143
0.038465
0.040058
0.041673
0.043214
0.044510
0.045431
0.045876
0.045759
0.044977
0.043401
0.040895
0.037376
0.032884
0.027641
0.022069
0.016735
0.012224
0.008663
0.005947
0.003713
0.001443
-0.001419
-0.005343
-0.010618
-0.017308
-0.025273
-0.034264
-0.044038
-0.054473
-0.065600
-0.080573
0.191511
0.188779
0.181145
0.168447
0.150388
0.126671
0.097193
0.062301
0.023070
-0.018539
-0.059766
-0.097921
-0.131038
-0.158024
-0.178551
-0.192882
-0.201720
-0.206067
-0.207119
-0.206146
-0.204353
-0.202679
-0.201572
-0.200833
-0.199665
-0.196921
-0.191413
-0.182542
-0.170234
-0.154893
-0.137252
-0.118201
-0.098632
-0.079339
-0.060946
-0.043883
-0.028382
-0.014496
-0.002121
0.008962
0.019046
0.028442
0.037432
0.046134
0.054300
0.061564
0.067320
0.070834
0.071355
0.068254
0.061212
0.050469
0.037020
0.022631
0.009544
-0.000057
-0.004996
-0.005652
-0.002821
0.002383
0.008776
0.015329
0.021289
0.026231
0.030037
0.032839
0.034918
0.036596
0.038137
0.039685
0.041252
0.042697
0.043915
0.044804
0.045286
0.045306
0.044816
0.043745
0.041978
0.039376
0.035825
0.031322
0.026032
0.020317
0.014695
0.009710
0.005874
0.003126
0.000989
-0.001029
-0.003472
-0.006812
-0.011354
-0.017201
-0.024276
-0.032406
-0.041435
-0.051337
-0.062301
-0.079060
0.205035
0.202398
0.194873
0.182097
0.163496
0.138398
0.106280
0.067161
0.022144
-0.026199
-0.073507
-0.115934
-0.151212
-0.178477
-0.197800
-0.209851
-0.215699
-0.216688
-0.214359
-0.210374
-0.206395
-0.203805
-0.203288
-0.204483
-0.205989
-0.205944
-0.202446
-0.194621
-0.182396
-0.166364
-0.147517
-0.126984
-0.105844
-0.085009
-0.065172
-0.046796
-0.030128
-0.015228
-0.001997
0.009773
0.020359
0.030060
0.039141
0.047800
0.055776
0.062567
0.067551
0.070065
0.069475
0.065226
0.056985
0.044898
0.029840
0.013517
-0.001701
-0.013294
-0.019171
-0.019502
-0.015815
-0.009321
-0.001360
0.006901
0.014612
0.021279
0.026728
0.031031
0.034396
0.037076
0.039280
0.041141
0.042695
0.043894
0.044754
0.045200
0.045169
0.044654
0.043669
0.042196
0.040161
0.037438
0.033907
0.029523
0.024385
0.018768
0.013101
0.007874
0.003483
0.000430
-0.001645
-0.003388
-0.005312
-0.007883
-0.011436
-0.016133
-0.021990
-0.028936
-0.036921
-0.046010
-0.056489
-0.073612
0.223316
0.220818
0.213592
0.201026
0.182127
0.155594
0.120088
0.074842
0.020719
-0.038946
-0.095897
-0.144282
-0.181905
-0.208713
-0.225585
-0.233821
-0.234984
-0.230841
-0.223344
-0.214690
-0.207269
-0.203311
-0.204047
-0.208887
-0.215310
-0.219828
-0.219550
-0.213206
-0.200847
-0.183487
-0.162599
-0.139715
-0.116188
-0.093093
-0.071206
-0.051023
-0.032798
-0.016586
-0.002289
0.010305
0.021472
0.031507
0.040654
0.049057
0.056808
0.063049
0.067116
0.068456
0.066642
0.061267
0.052038
0.039006
0.022843
0.005031
-0.012170
-0.026095
-0.034407
-0.035212
-0.030962
-0.023229
-0.013579
-0.003374
0.006377
0.015059
0.022406
0.028408
0.033207
0.037004
0.039985
0.042285
0.043959
0.044984
0.045296
0.045024
0.044398
0.043228
0.041616
0.039623
0.037262
0.034456
0.031087
0.027073
0.022433
0.017334
0.012084
0.007076
0.002689
-0.000830
-0.003097
-0.004640
-0.006110
-0.007952
-0.010516
-0.014019
-0.018556
-0.024152
-0.030832
-0.038710
-0.048062
-0.063703
0.246090
0.243879
0.237375
0.225688
0.207271
0.179857
0.140634
0.087024
0.018724
-0.060745
-0.132436
-0.187830
-0.226668
-0.251108
-0.263402
-0.265648
-0.259937
-0.248464
-0.233532
-0.217905
-0.205033
-0.198749
-0.201555
-0.212693
-0.227814
-0.240194
-0.244816
-0.240400
-0.227388
-0.207662
-0.183535
-0.157149
-0.130227
-0.104033
-0.079419
-0.056897
-0.036710
-0.018894
-0.003329
0.010212
0.022017
0.032368
0.041452
0.049254
0.056039
0.061403
0.064140
0.063878
0.060632
0.054326
0.044768
0.031855
0.015926
-0.001939
-0.019836
-0.035283
-0.045852
-0.049231
-0.045080
-0.036792
-0.025976
-0.014177
-0.002596
0.007987
0.017169
0.024837
0.031058
0.035987
0.039791
0.042599
0.044457
0.045339
0.045195
0.044058
0.042084
0.039961
0.037624
0.035050
0.032407
0.029671
0.026714
0.023404
0.019671
0.015560
0.011243
0.006986
0.003094
-0.000184
-0.002729
-0.004311
-0.005461
-0.006728
-0.008449
-0.010864
-0.014121
-0.018305
-0.023484
-0.029769
-0.037364
-0.050073
0.272827
0.271137
0.266041
0.256397
0.240059
0.213477
0.171369
0.107206
0.016382
-0.100583
-0.192981
-0.252979
-0.288764
-0.307145
-0.311869
-0.305563
-0.290656
-0.269726
-0.245045
-0.219647
-0.198096
-0.187118
-0.191992
-0.212121
-0.240808
-0.266854
-0.279015
-0.276974
-0.262475
-0.239058
-0.210346
-0.179291
-0.148027
-0.117984
-0.090056
-0.064739
-0.042244
-0.022574
-0.005581
0.008986
0.021418
0.031967
0.040723
0.047516
0.051900
0.054641
0.055415
0.052993
0.048397
0.041913
0.033253
0.022006
0.008084
-0.007935
-0.024639
-0.039917
-0.051423
-0.057271
-0.054848
-0.047185
-0.036255
-0.023767
-0.011086
0.000831
0.011423
0.020446
0.027868
0.033781
0.038310
0.041547
0.043495
0.044087
0.043272
0.041152
0.038036
0.034378
0.031010
0.027887
0.025144
0.022736
0.020501
0.018241
0.015799
0.013097
0.010168
0.007143
0.004217
0.001598
-0.000567
-0.002238
-0.003291
-0.004147
-0.005211
-0.006711
-0.008808
-0.011608
-0.015191
-0.019637
-0.025054
-0.033992
0.302564
0.301696
0.298912
0.292986
0.281385
0.259295
0.217965
0.142923
0.014481
-0.179896
-0.292692
-0.343343
-0.366461
-0.373972
-0.368456
-0.351823
-0.326343
-0.295107
-0.259996
-0.223363
-0.189086
-0.168692
-0.173134
-0.202010
-0.246242
-0.290737
-0.317449
-0.318298
-0.301723
-0.273839
-0.239962
-0.203888
-0.168088
-0.134082
-0.102753
-0.074569
-0.049708
-0.028149
-0.009734
0.005784
0.018657
0.029011
0.036724
0.041419
0.042709
0.040686
0.037527
0.033241
0.028581
0.023442
0.017224
0.009219
-0.001040
-0.013460
-0.027169
-0.040533
-0.051479
-0.058054
-0.058836
-0.052505
-0.042562
-0.030523
-0.017790
-0.005435
0.005833
0.015627
0.023796
0.030335
0.035292
0.038678
0.040423
0.040412
0.038623
0.035285
0.030916
0.026198
0.021752
0.018229
0.015619
0.013813
0.012588
0.011676
0.010828
0.009854
0.008652
0.007218
0.005635
0.004037
0.002566
0.001324
0.000335
-0.000312
-0.000885
-0.001651
-0.002747
-0.004270
-0.006281
-0.008820
-0.011900
-0.016812
0.333796
0.334049
0.334518
0.334232
0.330939
0.319564
0.288484
0.210958
0.019119
-0.352104
-0.444494
-0.445064
-0.443683
-0.439218
-0.424155
-0.398677
-0.365221
-0.324172
-0.278910
-0.233033
-0.192007
-0.157354
-0.156731
-0.188987
-0.241760
-0.298194
-0.340936
-0.350504
-0.332980
-0.302010
-0.264607
-0.225194
-0.186381
-0.149678
-0.115950
-0.085665
-0.059027
-0.036056
-0.016646
-0.000646
0.011971
0.020917
0.025675
0.026041
0.022632
0.016896
0.010513
0.006072
0.003067
0.000768
-0.001729
-0.005345
-0.010812
-0.018436
-0.027857
-0.037964
-0.047081
-0.053428
-0.055726
-0.051903
-0.043927
-0.033397
-0.021683
-0.009896
0.001158
0.010963
0.019242
0.025869
0.030783
0.033889
0.035030
0.034068
0.031055
0.026396
0.020828
0.015205
0.010217
0.006529
0.004293
0.003337
0.003368
0.004037
0.005001
0.005962
0.006698
0.007084
0.007091
0.006775
0.006251
0.005651
0.005086
0.004619
0.004355
0.004164
0.003897
0.003492
0.002922
0.002196
0.001374
0.000289
0.364485
0.366039
0.370375
0.377192
0.385538
0.392472
0.388859
0.344441
0.120912
-0.676107
-0.620808
-0.507153
-0.487713
-0.480733
-0.467009
-0.440155
-0.401112
-0.355364
-0.306728
-0.257769
-0.213082
-0.184357
-0.179151
-0.201763
-0.245283
-0.295833
-0.336790
-0.356090
-0.342679
-0.312004
-0.274863
-0.235804
-0.197278
-0.160669
-0.126825
-0.096286
-0.069384
-0.046295
-0.027113
-0.011985
-0.001332
0.004140
0.004015
-0.000951
-0.008633
-0.016483
-0.022587
-0.025109
-0.024979
-0.023315
-0.021261
-0.019880
-0.020062
-0.022380
-0.026892
-0.032982
-0.039405
-0.044606
-0.047174
-0.046173
-0.040425
-0.032088
-0.022239
-0.011906
-0.001925
0.007105
0.014790
0.020886
0.025206
0.027543
0.027666
0.025444
0.021044
0.015061
0.008422
0.002107
-0.003123
-0.006716
-0.008338
-0.008208
-0.006698
-0.004251
-0.001316
0.001705
0.004484
0.006793
0.008510
0.009622
0.010207
0.010408
0.010393
0.010324
0.010325
0.010537
0.010935
0.011459
0.012127
0.012994
0.014175
0.016408
0.392273
0.395070
0.403141
0.417039
0.437705
0.466384
0.504009
0.547691
0.635774
-0.020167
-0.555134
-0.489460
-0.489652
-0.492616
-0.485905
-0.462901
-0.428571
-0.388766
-0.349091
-0.310900
-0.277906
-0.257230
-0.247520
-0.252311
-0.269748
-0.296182
-0.319280
-0.329798
-0.323886
-0.298169
-0.265216
-0.230529
-0.196103
-0.163027
-0.132081
-0.103904
-0.079019
-0.057863
-0.040850
-0.028550
-0.021821
-0.021444
-0.027094
-0.036594
-0.046662
-0.054566
-0.058284
-0.057301
-0.052859
-0.046389
-0.039258
-0.032658
-0.027558
-0.024658
-0.024278
-0.026193
-0.029569
-0.033133
-0.035548
-0.035822
-0.032699
-0.026918
-0.019444
-0.011188
-0.002949
0.004635
0.011090
0.016064
0.019255
0.020352
0.019073
0.015323
0.009408
0.002098
-0.005532
-0.012415
-0.017752
-0.021040
-0.021828
-0.020385
-0.017178
-0.012767
-0.007725
-0.002565
0.002290
0.006533
0.009974
0.012548
0.014305
0.015388
0.016006
0.016390
0.016759
0.017292
0.018175
0.019428
0.021091
0.023256
0.026075
0.030948
0.414923
0.418621
0.429386
0.448318
0.477538
0.520765
0.584547
0.679965
0.810701
0.841165
0.000000
-0.485827
-0.482194
-0.477306
-0.472869
-0.463317
-0.446493
-0.427758
-0.410391
-0.393852
-0.378225
-0.362803
-0.342778
-0.324138
-0.310723
-0.303803
-0.298120
-0.291131
-0.279181
-0.261219
-0.235603
-0.207995
-0.180618
-0.154033
-0.128840
-0.105713
-0.085352
-0.068456
-0.055797
-0.048376
-0.047320
-0.053038
-0.064020
-0.076826
-0.087674
-0.094036
-0.094055
-0.088352
-0.078648
-0.066731
-0.054216
-0.042422
-0.032352
-0.024719
-0.019933
-0.018003
-0.018419
-0.020185
-0.022081
-0.023034
-0.022103
-0.018690
-0.013709
-0.007818
-0.001716
0.003971
0.008724
0.012109
0.013724
0.013175
0.010155
0.004638
-0.002933
-0.011631
-0.020267
-0.027707
-0.033109
-0.035973
-0.035751
-0.032787
-0.027674
-0.021123
-0.013851
-0.006496
0.000429
0.006554
0.011653
0.015635
0.018535
0.020503
0.021775
0.022631
0.023362
0.024228
0.025442
0.027228
0.029630
0.032767
0.036810
0.043581
0.430812
0.434891
0.446729
0.467434
0.498983
0.544246
0.606647
0.688214
0.783764
0.871629
0.781374
0.000000
-0.472563
-0.462932
-0.454054
-0.454182
-0.459529
-0.469633
-0.483474
-0.495353
-0.498742
-0.483156
-0.447484
-0.401819
-0.354789
-0.312562
-0.277659
-0.249361
-0.226639
-0.207223
-0.189183
-0.169851
-0.150955
-0.132613
-0.115138
-0.099136
-0.085393
-0.074823
-0.068554
-0.067963
-0.074161
-0.086728
-0.102836
-0.118161
-0.128860
-0.132731
-0.127769
-0.116399
-0.100794
-0.083105
-0.065184
-0.048462
-0.033944
-0.022281
-0.013844
-0.008707
-0.006559
-0.006634
-0.007851
-0.009093
-0.009467
-0.008292
-0.005671
-0.002133
0.001727
0.005322
0.008116
0.009616
0.009340
0.006840
0.001813
-0.005680
-0.015062
-0.025269
-0.035011
-0.043078
-0.048567
-0.050941
-0.049578
-0.044934
-0.037754
-0.028929
-0.019342
-0.009769
-0.000815
0.007102
0.013739
0.019008
0.022954
0.025742
0.027628
0.028933
0.029996
0.031138
0.032634
0.034724
0.037624
0.041409
0.046256
0.054202
0.439262
0.443192
0.454504
0.473952
0.502770
0.542632
0.594684
0.656939
0.715745
0.735410
0.691119
0.574659
0.000000
-0.452604
-0.442276
-0.451066
-0.472327
-0.508953
-0.554854
-0.594944
-0.612368
-0.588206
-0.534278
-0.463606
-0.388002
-0.316466
-0.255204
-0.206799
-0.171750
-0.147691
-0.131375
-0.119577
-0.108785
-0.099005
-0.089994
-0.082177
-0.076368
-0.073692
-0.075628
-0.083754
-0.098720
-0.118874
-0.140123
-0.157601
-0.167672
-0.167534
-0.156935
-0.139451
-0.117798
-0.094488
-0.071564
-0.050509
-0.032284
-0.017434
-0.006206
0.001372
0.005535
0.006878
0.006330
0.004957
0.003664
0.003250
0.003922
0.005377
0.007146
0.008698
0.009495
0.009000
0.006678
0.002051
-0.005149
-0.014766
-0.026089
-0.037934
-0.048907
-0.057697
-0.063319
-0.065154
-0.062580
-0.056178
-0.046870
-0.035735
-0.023837
-0.012094
-0.001208
0.008363
0.016377
0.022768
0.027615
0.031108
0.033530
0.035225
0.036569
0.037924
0.039611
0.041895
0.045017
0.049148
0.054406
0.062874
0.440558
0.443969
0.453711
0.470175
0.493830
0.524727
0.561568
0.599251
0.624736
0.613010
0.545717
0.458199
0.293509
0.000000
-0.454318
-0.466360
-0.482494
-0.532636
-0.602414
-0.667440
-0.691751
-0.654345
-0.582025
-0.491076
-0.395105
-0.304253
-0.225487
-0.162730
-0.117090
-0.086980
-0.069229
-0.060231
-0.056545
-0.054509
-0.053558
-0.054001
-0.056742
-0.063140
-0.074912
-0.093431
-0.118343
-0.146535
-0.172830
-0.192033
-0.200762
-0.195182
-0.178874
-0.155443
-0.128228
-0.100042
-0.073023
-0.048620
-0.027684
-0.010608
0.002513
0.011763
0.017378
0.019835
0.019907
0.018573
0.016765
0.015217
0.014410
0.014193
0.014200
0.013948
0.012897
0.010478
0.006120
-0.000658
-0.010067
-0.021846
-0.035160
-0.048708
-0.060982
-0.070557
-0.076341
-0.077594
-0.073810
-0.065694
-0.054338
-0.041008
-0.026943
-0.013202
-0.000573
0.010445
0.019623
0.026936
0.032508
0.036567
0.039422
0.041435
0.042999
0.044502
0.046291
0.048654
0.051823
0.056012
0.061334
0.069770
0.435649
0.438308
0.445790
0.458076
0.474902
0.495272
0.516577
0.533031
0.533709
0.501161
0.417693
0.275162
0.128819
-0.287361
-0.496332
-0.435792
-0.464810
-0.532441
-0.619729
-0.696179
-0.705281
-0.659785
-0.578080
-0.478107
-0.373969
-0.275648
-0.189678
-0.119813
-0.067373
-0.031495
-0.009920
0.000260
0.002012
-0.002550
-0.008307
-0.016338
-0.027754
-0.044031
-0.066744
-0.096497
-0.131538
-0.167366
-0.198020
-0.218092
-0.224176
-0.212995
-0.191147
-0.162593
-0.130993
-0.099286
-0.069569
-0.043157
-0.020724
-0.002485
0.011631
0.021831
0.028393
0.031710
0.032394
0.031280
0.029268
0.027084
0.025252
0.023830
0.022505
0.020813
0.018202
0.014077
0.007848
-0.000948
-0.012449
-0.026284
-0.041501
-0.056688
-0.070221
-0.080552
-0.086481
-0.087120
-0.082213
-0.072562
-0.059405
-0.044173
-0.028258
-0.012843
0.001207
0.013371
0.023435
0.031426
0.037521
0.041996
0.045179
0.047443
0.049181
0.050783
0.052606
0.054946
0.058029
0.062057
0.067167
0.075132
0.425901
0.427700
0.432656
0.440459
0.450378
0.460863
0.468897
0.469061
0.452519
0.406146
0.312757
0.149653
-0.131197
-0.703541
-0.556872
-0.441810
-0.459605
-0.527629
-0.610555
-0.669115
-0.661570
-0.611194
-0.530774
-0.434938
-0.335726
-0.241642
-0.158057
-0.087931
-0.032544
0.008059
0.035051
0.050086
0.054361
0.048562
0.039152
0.025026
0.005487
-0.020540
-0.053929
-0.094061
-0.137765
-0.179506
-0.212911
-0.232784
-0.233718
-0.217905
-0.191824
-0.159825
-0.125704
-0.092345
-0.061678
-0.034802
-0.012185
0.006140
0.020388
0.030880
0.037943
0.041919
0.043261
0.042609
0.040737
0.038356
0.035985
0.033848
0.031656
0.028947
0.025153
0.019650
0.011843
0.001308
-0.012013
-0.027640
-0.044513
-0.061117
-0.075721
-0.086669
-0.092667
-0.092686
-0.086822
-0.075938
-0.061382
-0.044709
-0.027433
-0.010829
0.004186
0.017081
0.027675
0.036047
0.042438
0.047166
0.050581
0.053049
0.054944
0.056639
0.058475
0.060743
0.063662
0.067387
0.072061
0.079224
0.412885
0.413845
0.416381
0.420026
0.423836
0.426106
0.423948
0.412771
0.385755
0.333420
0.243227
0.099063
-0.119100
-0.390646
-0.430110
-0.423566
-0.450973
-0.504954
-0.561510
-0.584986
-0.572042
-0.526772
-0.458301
-0.377121
-0.292367
-0.210809
-0.136859
-0.072951
-0.020004
0.022097
0.053752
0.074563
0.083851
0.086120
0.077672
0.060324
0.034728
0.000952
-0.040653
-0.088134
-0.137193
-0.181674
-0.215026
-0.232139
-0.227575
-0.208727
-0.180481
-0.147355
-0.113028
-0.080143
-0.050363
-0.024544
-0.002958
0.014497
0.028135
0.038346
0.045501
0.049925
0.051950
0.052012
0.050680
0.048545
0.046164
0.043801
0.041206
0.037921
0.033360
0.026878
0.017886
0.006007
-0.008732
-0.025749
-0.043888
-0.061544
-0.076901
-0.088224
-0.094158
-0.093583
-0.086981
-0.075248
-0.059798
-0.042270
-0.024254
-0.007077
0.008323
0.021438
0.032130
0.040540
0.046968
0.051775
0.055324
0.057966
0.060037
0.061865
0.063756
0.065969
0.068702
0.072075
0.076182
0.082293
0.398128
0.398352
0.398793
0.398937
0.397815
0.393824
0.384484
0.366184
0.334003
0.281709
0.202102
0.088419
-0.060234
-0.221427
-0.307798
-0.354224
-0.396038
-0.439371
-0.473344
-0.484130
-0.471636
-0.436385
-0.383577
-0.320055
-0.252321
-0.185571
-0.123434
-0.068092
-0.020564
0.018912
0.050364
0.073543
0.090417
0.099938
0.095770
0.078989
0.051402
0.014313
-0.030721
-0.080624
-0.130353
-0.173485
-0.203601
-0.215416
-0.207037
-0.186782
-0.158773
-0.127045
-0.094836
-0.064403
-0.037096
-0.013557
0.006073
0.021966
0.034462
0.043965
0.050861
0.055474
0.058079
0.058964
0.058494
0.057070
0.055260
0.053163
0.050616
0.047191
0.042296
0.035275
0.025552
0.012801
-0.002867
-0.020780
-0.039698
-0.057947
-0.073655
-0.085043
-0.090729
-0.089612
-0.082507
-0.070325
-0.054520
-0.036776
-0.018713
-0.001662
0.013469
0.026227
0.036541
0.044619
0.050815
0.055521
0.059107
0.061895
0.064172
0.066205
0.068240
0.070491
0.073109
0.076172
0.079703
0.084592
0.382973
0.382598
0.381356
0.378758
0.373926
0.365489
0.351466
0.329188
0.295315
0.246078
0.177920
0.088965
-0.017633
-0.128739
-0.213199
-0.273553
-0.320851
-0.359075
-0.384710
-0.393236
-0.384485
-0.358984
-0.319903
-0.271704
-0.218948
-0.165550
-0.114455
-0.067610
-0.026108
0.009584
0.039360
0.063317
0.082087
0.092047
0.090787
0.077665
0.053028
0.018093
-0.024772
-0.071677
-0.117181
-0.154935
-0.179089
-0.183827
-0.174819
-0.155756
-0.130433
-0.102276
-0.073970
-0.047357
-0.023528
-0.002983
0.014189
0.028158
0.039236
0.047793
0.054197
0.058764
0.061753
0.063380
0.063876
0.063509
0.062702
0.061313
0.059247
0.056112
0.051317
0.044210
0.034235
0.021118
0.005042
-0.013240
-0.032423
-0.050783
-0.066417
-0.077535
-0.082770
-0.081176
-0.073757
-0.061469
-0.045801
-0.028454
-0.011037
0.005174
0.019360
0.031169
0.040630
0.048023
0.053744
0.058197
0.061736
0.064647
0.067158
0.069469
0.071760
0.074182
0.076834
0.079740
0.082849
0.086545
0.368512
0.367677
0.365158
0.360535
0.353070
0.341663
0.324816
0.300640
0.266976
0.221682
0.163214
0.091624
0.010124
-0.073593
-0.146579
-0.205514
-0.252254
-0.287906
-0.311317
-0.320823
-0.316318
-0.298635
-0.270005
-0.233514
-0.192442
-0.149764
-0.107859
-0.068433
-0.032568
-0.000860
0.026420
0.049390
0.066676
0.076392
0.076831
0.067002
0.046783
0.017122
-0.019628
-0.059532
-0.097323
-0.127166
-0.143948
-0.146100
-0.137920
-0.121802
-0.100653
-0.077171
-0.053507
-0.031170
-0.011079
0.006328
0.020957
0.032938
0.042535
0.050071
0.055878
0.060256
0.063453
0.065657
0.067011
0.067905
0.068176
0.067764
0.066523
0.064052
0.059759
0.052993
0.043223
0.030221
0.014234
-0.003925
-0.022898
-0.040930
-0.056108
-0.066660
-0.071268
-0.069175
-0.061541
-0.049387
-0.034243
-0.017818
-0.001667
0.013042
0.025645
0.035953
0.044132
0.050544
0.055612
0.059722
0.063182
0.066219
0.068996
0.071647
0.074289
0.077022
0.079892
0.082927
0.085912
0.088843
0.355582
0.354408
0.350964
0.344912
0.335669
0.322389
0.303976
0.279137
0.246518
0.204966
0.153948
0.094150
0.028159
-0.039237
-0.101556
-0.155189
-0.199064
-0.232712
-0.255398
-0.266310
-0.265357
-0.253467
-0.232378
-0.204385
-0.171965
-0.137437
-0.102749
-0.069383
-0.038368
-0.010365
0.014215
0.035065
0.050810
0.060224
0.062022
0.055291
0.039818
0.016413
-0.012801
-0.044325
-0.073648
-0.096101
-0.108017
-0.109984
-0.103708
-0.091021
-0.074122
-0.055117
-0.035750
-0.017301
-0.000587
0.013971
0.026262
0.036384
0.044568
0.051105
0.056302
0.060440
0.063753
0.066419
0.068570
0.070469
0.071753
0.072392
0.072153
0.070591
0.067092
0.061007
0.051818
0.039332
0.023840
0.006204
-0.012182
-0.029540
-0.043956
-0.053682
-0.057421
-0.054807
-0.046990
-0.035100
-0.020738
-0.005615
0.008786
0.021457
0.031948
0.040297
0.046854
0.052080
0.056406
0.060163
0.063577
0.066784
0.069872
0.072913
0.075976
0.079163
0.082503
0.085892
0.089174
0.092301
0.344803
0.343378
0.339276
0.332252
0.321859
0.307462
0.288269
0.263406
0.232041
0.193589
0.148003
0.096117
0.039949
-0.017275
-0.071631
-0.120086
-0.160801
-0.192639
-0.214808
-0.226761
-0.228406
-0.220610
-0.204803
-0.182808
-0.156595
-0.128050
-0.098803
-0.070152
-0.043056
-0.018199
0.003915
0.022737
0.037235
0.046473
0.049470
0.045486
0.034333
0.016697
-0.005632
-0.029779
-0.052187
-0.069398
-0.079090
-0.081282
-0.076724
-0.066804
-0.053225
-0.037688
-0.021663
-0.006276
0.007721
0.019926
0.030223
0.038707
0.045608
0.051220
0.055844
0.059750
0.063159
0.066215
0.069120
0.071696
0.073862
0.075478
0.076240
0.075653
0.073081
0.067862
0.059484
0.047769
0.033036
0.016178
-0.001383
-0.017846
-0.031301
-0.040057
-0.042587
-0.039478
-0.031483
-0.019906
-0.006442
0.007184
0.019571
0.029888
0.037938
0.044037
0.048762
0.052700
0.056280
0.059746
0.063199
0.066654
0.070106
0.073594
0.077181
0.080876
0.084720
0.088708
0.092758
0.097385
0.336632
0.334991
0.330406
0.322731
0.311624
0.296598
0.277073
0.252449
0.222209
0.186087
0.144256
0.097544
0.047577
-0.003268
-0.052198
-0.096681
-0.134778
-0.165114
-0.186800
-0.199367
-0.202751
-0.197709
-0.185462
-0.167543
-0.145610
-0.121264
-0.095918
-0.070728
-0.046587
-0.024169
-0.004014
0.013265
0.026870
0.036036
0.039981
0.038097
0.030223
0.016923
-0.000329
-0.019205
-0.036900
-0.050775
-0.059104
-0.061269
-0.057741
-0.049584
-0.038186
-0.024986
-0.011277
0.001925
0.013922
0.024334
0.033053
0.040189
0.045993
0.050785
0.054894
0.058603
0.062129
0.065581
0.068946
0.072143
0.075074
0.077538
0.079184
0.079490
0.077805
0.073459
0.065934
0.055056
0.041155
0.025142
0.008471
-0.007029
-0.019421
-0.026991
-0.028592
-0.024929
-0.016753
-0.005482
0.007118
0.019309
0.029754
0.037771
0.043394
0.047220
0.050087
0.052735
0.055612
0.058867
0.062455
0.066231
0.070067
0.073988
0.078012
0.082193
0.086610
0.091345
0.096482
0.103664
0.331467
0.329510
0.324517
0.316407
0.304880
0.289530
0.269903
0.245554
0.216149
0.181580
0.142117
0.098547
0.052256
0.005182
-0.040411
-0.082308
-0.118617
-0.147897
-0.169194
-0.182055
-0.186489
-0.183149
-0.173116
-0.157751
-0.138524
-0.116865
-0.094052
-0.071150
-0.049003
-0.028265
-0.009457
0.006821
0.019879
0.029061
0.033678
0.033185
0.027415
0.016840
0.002725
-0.012940
-0.027789
-0.039592
-0.046840
-0.048825
-0.045808
-0.038652
-0.028549
-0.016776
-0.004506
0.007316
0.018032
0.027276
0.034948
0.041157
0.046167
0.050322
0.053988
0.057494
0.061113
0.064811
0.068570
0.072315
0.075891
0.079051
0.081413
0.082440
0.081476
0.077848
0.071032
0.060850
0.047634
0.032314
0.016378
0.001692
-0.009785
-0.016316
-0.017356
-0.013329
-0.005082
0.005902
0.017830
0.028965
0.037999
0.044320
0.048093
0.050103
0.051391
0.052868
0.055059
0.058087
0.061834
0.065787
0.069949
0.074227
0.078627
0.083222
0.088140
0.093568
0.099778
0.109725
0.329899
0.327024
0.321636
0.313270
0.301548
0.286077
0.266454
0.242307
0.213375
0.179615
0.141323
0.099253
0.054675
0.009339
-0.034706
-0.075379
-0.110828
-0.139599
-0.160739
-0.173780
-0.178726
-0.176205
-0.167235
-0.153086
-0.135140
-0.114745
-0.093119
-0.071287
-0.050080
-0.030167
-0.012130
0.003559
0.016384
0.025663
0.030706
0.030956
0.026216
0.016903
0.004197
-0.010044
-0.023634
-0.034597
-0.041410
-0.043306
-0.040526
-0.033845
-0.024351
-0.013237
-0.001612
0.009616
0.019807
0.028598
0.035884
0.041766
0.046500
0.050426
0.053910
0.057268
0.060683
0.064427
0.068472
0.072621
0.076661
0.080307
0.083158
0.084666
0.084166
0.080975
0.074557
0.064722
0.051800
0.036745
0.021093
0.006765
-0.004304
-0.010666
-0.011631
-0.007561
0.000589
0.011334
0.022912
0.033621
0.042168
0.047943
0.051106
0.052451
0.053062
0.053914
0.055593
0.058231
0.061586
0.065636
0.069984
0.074468
0.079078
0.083904
0.089107
0.094940
0.101797
0.113490
