# vtk DataFile Version 3.0
Vector Field
ASCII
DATASET RECTILINEAR_GRID
DIMENSIONS 100 26 1
X_COORDINATES 100 double
0.050000 0.150000 0.250000 0.350000 0.450000 0.550000 0.650000 0.750000 0.850000 0.950000 1.050000 1.150000 1.250000 1.350000 1.450000 1.550000 1.650000 1.750000 1.850000 1.950000 2.050000 2.150000 2.250000 2.350000 2.450000 2.550000 2.650000 2.750000 2.850000 2.950000 3.050000 3.150000 3.250000 3.350000 3.450000 3.550000 3.650000 3.750000 3.850000 3.950000 4.050000 4.150000 4.250000 4.350000 4.450000 4.550000 4.650000 4.750000 4.850000 4.950000 5.050000 5.150000 5.250000 5.350000 5.450000 5.550000 5.650000 5.750000 5.850000 5.950000 6.050000 6.150000 6.250000 6.350000 6.450000 6.550000 6.650000 6.750000 6.850000 6.950000 7.050000 7.150000 7.250000 7.350000 7.450000 7.550000 7.650000 7.750000 7.850000 7.950000 8.050000 8.150000 8.250000 8.350000 8.450000 8.550000 8.650000 8.750000 8.850000 8.950000 9.050000 9.150000 9.250000 9.350000 9.450000 9.550000 9.650000 9.750000 9.850000 9.950000 
Y_COORDINATES 26 double
0.050000 0.150000 0.250000 0.350000 0.450000 0.550000 0.650000 0.750000 0.850000 0.950000 1.050000 1.150000 1.250000 1.350000 1.450000 1.550000 1.650000 1.750000 1.850000 1.950000 2.050000 2.150000 2.250000 2.350000 2.450000 2.550000 
Z_COORDINATES 1 double
0.0
POINT_DATA 2600
VECTORS Vektorfeld double
0.997822 0.002178 0.0
0.993671 0.001973 0.0
0.991484 0.000214 0.0
0.993414 -0.002145 0.0
1.000201 -0.004642 0.0
1.011781 -0.006938 0.0
1.027417 -0.008698 0.0
1.045707 -0.009591 0.0
1.064644 -0.009346 0.0
1.081828 -0.007838 0.0
1.094848 -0.005181 0.0
1.101769 -0.001740 0.0
1.101609 0.001900 0.0
1.094152 0.005557 0.0
1.079641 0.008954 0.0
1.058794 0.011893 0.0
1.032647 0.014253 0.0
1.002425 0.015970 0.0
0.969445 0.017010 0.0
0.935074 0.017361 0.0
0.900686 0.017027 0.0
0.867608 0.016051 0.0
0.837028 0.014529 0.0
0.809890 0.012610 0.0
0.786804 0.010476 0.0
0.768017 0.008311 0.0
0.753438 0.006268 0.0
0.742724 0.004446 0.0
0.735382 0.002897 0.0
0.730858 0.001627 0.0
0.728621 0.000610 0.0
0.728238 -0.000227 0.0
0.729316 -0.000850 0.0
0.731437 -0.001271 0.0
0.734235 -0.001528 0.0
0.737423 -0.001660 0.0
0.740785 -0.001702 0.0
0.744168 -0.001680 0.0
0.747464 -0.001616 0.0
0.750603 -0.001523 0.0
0.753541 -0.001415 0.0
0.756257 -0.001300 0.0
0.758741 -0.001184 0.0
0.760995 -0.001070 0.0
0.763027 -0.000962 0.0
0.764851 -0.000861 0.0
0.766481 -0.000768 0.0
0.767932 -0.000683 0.0
0.769222 -0.000607 0.0
0.770366 -0.000537 0.0
0.771379 -0.000475 0.0
0.772274 -0.000420 0.0
0.773065 -0.000371 0.0
0.773763 -0.000327 0.0
0.774379 -0.000289 0.0
0.774922 -0.000254 0.0
0.775401 -0.000224 0.0
0.775822 -0.000197 0.0
0.776193 -0.000174 0.0
0.776520 -0.000153 0.0
0.776808 -0.000135 0.0
0.777062 -0.000119 0.0
0.777285 -0.000105 0.0
0.777482 -0.000092 0.0
0.777655 -0.000081 0.0
0.777807 -0.000071 0.0
0.777941 -0.000063 0.0
0.778060 -0.000055 0.0
0.778164 -0.000049 0.0
0.778256 -0.000043 0.0
0.778338 -0.000038 0.0
0.778409 -0.000034 0.0
0.778473 -0.000030 0.0
0.778530 -0.000027 0.0
0.778581 -0.000024 0.0
0.778626 -0.000022 0.0
0.778668 -0.000020 0.0
0.778706 -0.000018 0.0
0.778741 -0.000017 0.0
0.778775 -0.000016 0.0
0.778807 -0.000016 0.0
0.778840 -0.000017 0.0
0.778874 -0.000017 0.0
0.778911 -0.000019 0.0
0.778952 -0.000022 0.0
0.778998 -0.000025 0.0
0.779053 -0.000030 0.0
0.779119 -0.000036 0.0
0.779200 -0.000045 0.0
0.779302 -0.000057 0.0
0.779431 -0.000073 0.0
0.779599 -0.000094 0.0
0.779817 -0.000125 0.0
0.780109 -0.000167 0.0
0.780507 -0.000230 0.0
0.781064 -0.000327 0.0
0.781875 -0.000484 0.0
0.783123 -0.000764 0.0
0.785234 -0.001348 0.0
0.788524 -0.001942 0.0
1.003123 0.001233 0.0
1.012295 -0.002102 0.0
1.026747 -0.007977 0.0
1.045828 -0.014965 0.0
1.069384 -0.022165 0.0
1.097136 -0.028748 0.0
1.128424 -0.033812 0.0
1.162053 -0.036396 0.0
1.196234 -0.035659 0.0
1.228663 -0.031138 0.0
1.256882 -0.023120 0.0
1.278758 -0.012599 0.0
1.292633 -0.000956 0.0
1.297718 0.010785 0.0
1.294236 0.021720 0.0
1.282988 0.031222 0.0
1.265122 0.038937 0.0
1.241934 0.044697 0.0
1.214757 0.048441 0.0
1.184899 0.050158 0.0
1.153637 0.049879 0.0
1.122200 0.047713 0.0
1.091748 0.043898 0.0
1.063311 0.038816 0.0
1.037716 0.032950 0.0
1.015530 0.026811 0.0
0.997034 0.020844 0.0
0.982243 0.015375 0.0
0.970957 0.010596 0.0
0.962832 0.006577 0.0
0.957429 0.003300 0.0
0.954223 0.000673 0.0
0.952725 -0.001331 0.0
0.952590 -0.002775 0.0
0.953520 -0.003751 0.0
0.955252 -0.004357 0.0
0.957559 -0.004676 0.0
0.960249 -0.004780 0.0
0.963164 -0.004727 0.0
0.966180 -0.004566 0.0
0.969199 -0.004331 0.0
0.972151 -0.004052 0.0
0.974985 -0.003750 0.0
0.977667 -0.003440 0.0
0.980175 -0.003134 0.0
0.982500 -0.002838 0.0
0.984638 -0.002559 0.0
0.986591 -0.002298 0.0
0.988366 -0.002057 0.0
0.989973 -0.001837 0.0
0.991421 -0.001637 0.0
0.992722 -0.001455 0.0
0.993888 -0.001292 0.0
0.994930 -0.001146 0.0
0.995860 -0.001015 0.0
0.996689 -0.000899 0.0
0.997426 -0.000795 0.0
0.998081 -0.000703 0.0
0.998662 -0.000621 0.0
0.999177 -0.000548 0.0
0.999634 -0.000484 0.0
1.000038 -0.000427 0.0
1.000396 -0.000377 0.0
1.000713 -0.000333 0.0
1.000993 -0.000294 0.0
1.001241 -0.000259 0.0
1.001460 -0.000228 0.0
1.001653 -0.000202 0.0
1.001824 -0.000178 0.0
1.001975 -0.000157 0.0
1.002109 -0.000139 0.0
1.002227 -0.000123 0.0
1.002332 -0.000109 0.0
1.002425 -0.000097 0.0
1.002507 -0.000087 0.0
1.002581 -0.000078 0.0
1.002647 -0.000071 0.0
1.002706 -0.000065 0.0
1.002759 -0.000060 0.0
1.002809 -0.000057 0.0
1.002854 -0.000055 0.0
1.002898 -0.000054 0.0
1.002939 -0.000056 0.0
1.002981 -0.000059 0.0
1.003024 -0.000065 0.0
1.003070 -0.000074 0.0
1.003120 -0.000086 0.0
1.003178 -0.000103 0.0
1.003244 -0.000126 0.0
1.003325 -0.000157 0.0
1.003423 -0.000200 0.0
1.003545 -0.000257 0.0
1.003700 -0.000336 0.0
1.003897 -0.000446 0.0
1.004153 -0.000604 0.0
1.004483 -0.000840 0.0
1.004906 -0.001205 0.0
1.005418 -0.001802 0.0
1.005879 -0.002880 0.0
1.006203 -0.004024 0.0
1.002045 -0.003936 0.0
1.009444 -0.013504 0.0
1.023063 -0.024647 0.0
1.042390 -0.036702 0.0
1.067255 -0.048849 0.0
1.097454 -0.060016 0.0
1.132438 -0.068816 0.0
1.171013 -0.073596 0.0
1.211123 -0.072750 0.0
1.249756 -0.065109 0.0
1.283504 -0.051117 0.0
1.309610 -0.032585 0.0
1.326544 -0.011778 0.0
1.333936 0.009129 0.0
1.332253 0.028541 0.0
1.322503 0.045399 0.0
1.305987 0.059143 0.0
1.284104 0.069561 0.0
1.258210 0.076648 0.0
1.229541 0.080477 0.0
1.199210 0.081155 0.0
1.168238 0.078847 0.0
1.137591 0.073863 0.0
1.108180 0.066699 0.0
1.080822 0.058020 0.0
1.056178 0.048570 0.0
1.034710 0.039048 0.0
1.016656 0.030015 0.0
1.002042 0.021854 0.0
0.990715 0.014771 0.0
0.982390 0.008833 0.0
0.976706 0.004031 0.0
0.973256 0.000258 0.0
0.971630 -0.002602 0.0
0.971453 -0.004677 0.0
0.972386 -0.006097 0.0
0.974133 -0.006989 0.0
0.976442 -0.007465 0.0
0.979108 -0.007623 0.0
0.981968 -0.007545 0.0
0.984898 -0.007300 0.0
0.987804 -0.006941 0.0
0.990621 -0.006512 0.0
0.993305 -0.006043 0.0
0.995826 -0.005560 0.0
0.998170 -0.005080 0.0
1.000330 -0.004615 0.0
1.002308 -0.004172 0.0
1.004107 -0.003757 0.0
1.005736 -0.003373 0.0
1.007206 -0.003019 0.0
1.008528 -0.002696 0.0
1.009713 -0.002403 0.0
1.010773 -0.002138 0.0
1.011720 -0.001900 0.0
1.012563 -0.001686 0.0
1.013314 -0.001495 0.0
1.013981 -0.001325 0.0
1.014574 -0.001173 0.0
1.015100 -0.001038 0.0
1.015566 -0.000918 0.0
1.015979 -0.000811 0.0
1.016344 -0.000717 0.0
1.016668 -0.000633 0.0
1.016954 -0.000559 0.0
1.017207 -0.000494 0.0
1.017431 -0.000436 0.0
1.017629 -0.000385 0.0
1.017804 -0.000340 0.0
1.017958 -0.000301 0.0
1.018095 -0.000266 0.0
1.018216 -0.000235 0.0
1.018323 -0.000209 0.0
1.018418 -0.000185 0.0
1.018502 -0.000165 0.0
1.018577 -0.000148 0.0
1.018644 -0.000133 0.0
1.018703 -0.000121 0.0
1.018757 -0.000111 0.0
1.018807 -0.000104 0.0
1.018852 -0.000099 0.0
1.018894 -0.000096 0.0
1.018935 -0.000096 0.0
1.018974 -0.000100 0.0
1.019014 -0.000107 0.0
1.019056 -0.000119 0.0
1.019100 -0.000136 0.0
1.019149 -0.000160 0.0
1.019206 -0.000193 0.0
1.019271 -0.000237 0.0
1.019350 -0.000297 0.0
1.019445 -0.000377 0.0
1.019560 -0.000486 0.0
1.019701 -0.000635 0.0
1.019872 -0.000841 0.0
1.020071 -0.001133 0.0
1.020287 -0.001551 0.0
1.020476 -0.002157 0.0
1.020515 -0.003026 0.0
1.020315 -0.004003 0.0
1.001688 -0.007668 0.0
1.008293 -0.023775 0.0
1.021278 -0.040979 0.0
1.040631 -0.059049 0.0
1.066564 -0.077299 0.0
1.099293 -0.094494 0.0
1.138700 -0.108728 0.0
1.183823 -0.117381 0.0
1.232405 -0.117657 0.0
1.280069 -0.106499 0.0
1.321344 -0.084750 0.0
1.352232 -0.055946 0.0
1.370995 -0.024113 0.0
1.377674 0.007392 0.0
1.373348 0.036288 0.0
1.359584 0.061167 0.0
1.338180 0.081296 0.0
1.311001 0.096469 0.0
1.279822 0.106813 0.0
1.246205 0.112598 0.0
1.211468 0.114103 0.0
1.176722 0.111617 0.0
1.142937 0.105526 0.0
1.110975 0.096408 0.0
1.081593 0.085051 0.0
1.055401 0.072375 0.0
1.032817 0.059295 0.0
1.014042 0.046598 0.0
0.999060 0.034868 0.0
0.987668 0.024475 0.0
0.979523 0.015599 0.0
0.974196 0.008277 0.0
0.971223 0.002435 0.0
0.970136 -0.002068 0.0
0.970503 -0.005401 0.0
0.971941 -0.007744 0.0
0.974128 -0.009277 0.0
0.976804 -0.010163 0.0
0.979762 -0.010549 0.0
0.982844 -0.010562 0.0
0.985935 -0.010304 0.0
0.988952 -0.009860 0.0
0.991838 -0.009296 0.0
0.994559 -0.008663 0.0
0.997094 -0.007997 0.0
0.999433 -0.007327 0.0
1.001577 -0.006672 0.0
1.003530 -0.006045 0.0
1.005299 -0.005454 0.0
1.006896 -0.004903 0.0
1.008332 -0.004395 0.0
1.009621 -0.003930 0.0
1.010774 -0.003507 0.0
1.011804 -0.003124 0.0
1.012722 -0.002779 0.0
1.013539 -0.002469 0.0
1.014266 -0.002191 0.0
1.014911 -0.001942 0.0
1.015484 -0.001721 0.0
1.015992 -0.001523 0.0
1.016442 -0.001348 0.0
1.016840 -0.001192 0.0
1.017193 -0.001054 0.0
1.017505 -0.000932 0.0
1.017781 -0.000823 0.0
1.018025 -0.000727 0.0
1.018240 -0.000642 0.0
1.018431 -0.000568 0.0
1.018600 -0.000501 0.0
1.018748 -0.000443 0.0
1.018880 -0.000392 0.0
1.018996 -0.000347 0.0
1.019099 -0.000307 0.0
1.019190 -0.000273 0.0
1.019271 -0.000243 0.0
1.019343 -0.000217 0.0
1.019407 -0.000195 0.0
1.019464 -0.000176 0.0
1.019515 -0.000161 0.0
1.019562 -0.000149 0.0
1.019604 -0.000141 0.0
1.019643 -0.000136 0.0
1.019680 -0.000134 0.0
1.019716 -0.000137 0.0
1.019751 -0.000145 0.0
1.019787 -0.000158 0.0
1.019824 -0.000178 0.0
1.019865 -0.000207 0.0
1.019909 -0.000246 0.0
1.019960 -0.000300 0.0
1.020018 -0.000371 0.0
1.020086 -0.000465 0.0
1.020164 -0.000591 0.0
1.020254 -0.000760 0.0
1.020352 -0.000985 0.0
1.020450 -0.001287 0.0
1.020530 -0.001693 0.0
1.020551 -0.002226 0.0
1.020451 -0.002895 0.0
1.020175 -0.003658 0.0
1.001524 -0.010880 0.0
1.007662 -0.033307 0.0
1.020138 -0.056909 0.0
1.039437 -0.081772 0.0
1.066362 -0.107434 0.0
1.101902 -0.132629 0.0
1.146864 -0.154963 0.0
1.201052 -0.170458 0.0
1.262683 -0.174793 0.0
1.324677 -0.159021 0.0
1.377011 -0.125837 0.0
1.413962 -0.082698 0.0
1.434203 -0.036365 0.0
1.438870 0.008298 0.0
1.430002 0.048576 0.0
1.409789 0.082855 0.0
1.380556 0.110246 0.0
1.344716 0.130536 0.0
1.304624 0.144018 0.0
1.262400 0.151234 0.0
1.219834 0.152769 0.0
1.178370 0.149160 0.0
1.139159 0.140980 0.0
1.103117 0.128958 0.0
1.070955 0.114045 0.0
1.043165 0.097363 0.0
1.020001 0.080056 0.0
1.001466 0.063147 0.0
0.987337 0.047430 0.0
0.977209 0.033434 0.0
0.970553 0.021441 0.0
0.966787 0.011527 0.0
0.965328 0.003617 0.0
0.965632 -0.002467 0.0
0.967220 -0.006955 0.0
0.969690 -0.010098 0.0
0.972721 -0.012142 0.0
0.976063 -0.013316 0.0
0.979531 -0.013822 0.0
0.982990 -0.013831 0.0
0.986348 -0.013484 0.0
0.989545 -0.012894 0.0
0.992544 -0.012148 0.0
0.995325 -0.011313 0.0
0.997882 -0.010439 0.0
1.000217 -0.009560 0.0
1.002337 -0.008703 0.0
1.004254 -0.007883 0.0
1.005980 -0.007111 0.0
1.007529 -0.006392 0.0
1.008917 -0.005730 0.0
1.010157 -0.005124 0.0
1.011263 -0.004573 0.0
1.012248 -0.004074 0.0
1.013125 -0.003624 0.0
1.013903 -0.003220 0.0
1.014595 -0.002857 0.0
1.015208 -0.002534 0.0
1.015751 -0.002245 0.0
1.016232 -0.001988 0.0
1.016658 -0.001759 0.0
1.017035 -0.001556 0.0
1.017369 -0.001376 0.0
1.017664 -0.001216 0.0
1.017924 -0.001075 0.0
1.018155 -0.000950 0.0
1.018358 -0.000839 0.0
1.018538 -0.000741 0.0
1.018697 -0.000655 0.0
1.018837 -0.000579 0.0
1.018961 -0.000512 0.0
1.019071 -0.000453 0.0
1.019168 -0.000401 0.0
1.019253 -0.000356 0.0
1.019329 -0.000316 0.0
1.019396 -0.000282 0.0
1.019456 -0.000253 0.0
1.019509 -0.000228 0.0
1.019557 -0.000208 0.0
1.019599 -0.000192 0.0
1.019638 -0.000179 0.0
1.019673 -0.000172 0.0
1.019706 -0.000168 0.0
1.019737 -0.000170 0.0
1.019766 -0.000177 0.0
1.019795 -0.000191 0.0
1.019824 -0.000212 0.0
1.019854 -0.000243 0.0
1.019886 -0.000286 0.0
1.019919 -0.000344 0.0
1.019956 -0.000421 0.0
1.019996 -0.000522 0.0
1.020037 -0.000654 0.0
1.020078 -0.000827 0.0
1.020113 -0.001051 0.0
1.020132 -0.001339 0.0
1.020115 -0.001704 0.0
1.020036 -0.002156 0.0
1.019858 -0.002687 0.0
1.019552 -0.003285 0.0
1.001359 -0.013763 0.0
1.006919 -0.042122 0.0
1.018496 -0.072146 0.0
1.037029 -0.104366 0.0
1.064048 -0.138784 0.0
1.101687 -0.174457 0.0
1.152431 -0.208842 0.0
1.217952 -0.236288 0.0
1.299446 -0.252088 0.0
1.383427 -0.227700 0.0
1.449543 -0.175608 0.0
1.491787 -0.112122 0.0
1.511744 -0.047140 0.0
1.512768 0.013383 0.0
1.497927 0.067200 0.0
1.469740 0.112631 0.0
1.430895 0.148549 0.0
1.384338 0.174629 0.0
1.333077 0.191278 0.0
1.279924 0.199351 0.0
1.227298 0.199844 0.0
1.177139 0.193708 0.0
1.130914 0.181868 0.0
1.089675 0.165350 0.0
1.054109 0.145382 0.0
1.024557 0.123367 0.0
1.001036 0.100738 0.0
0.983257 0.078780 0.0
0.970683 0.058500 0.0
0.962604 0.040571 0.0
0.958229 0.025335 0.0
0.956764 0.012865 0.0
0.957472 0.003030 0.0
0.959716 -0.004428 0.0
0.962970 -0.009835 0.0
0.966820 -0.013538 0.0
0.970958 -0.015870 0.0
0.975161 -0.017133 0.0
0.979278 -0.017589 0.0
0.983210 -0.017455 0.0
0.986898 -0.016907 0.0
0.990313 -0.016083 0.0
0.993443 -0.015088 0.0
0.996292 -0.014003 0.0
0.998870 -0.012884 0.0
1.001193 -0.011773 0.0
1.003279 -0.010696 0.0
1.005146 -0.009673 0.0
1.006814 -0.008714 0.0
1.008301 -0.007826 0.0
1.009626 -0.007009 0.0
1.010803 -0.006263 0.0
1.011849 -0.005586 0.0
1.012778 -0.004974 0.0
1.013601 -0.004423 0.0
1.014331 -0.003929 0.0
1.014977 -0.003486 0.0
1.015549 -0.003091 0.0
1.016056 -0.002738 0.0
1.016503 -0.002424 0.0
1.016899 -0.002145 0.0
1.017249 -0.001897 0.0
1.017559 -0.001678 0.0
1.017832 -0.001483 0.0
1.018073 -0.001310 0.0
1.018287 -0.001158 0.0
1.018475 -0.001023 0.0
1.018641 -0.000904 0.0
1.018788 -0.000798 0.0
1.018918 -0.000705 0.0
1.019032 -0.000624 0.0
1.019133 -0.000552 0.0
1.019222 -0.000488 0.0
1.019301 -0.000433 0.0
1.019371 -0.000385 0.0
1.019433 -0.000343 0.0
1.019487 -0.000307 0.0
1.019535 -0.000276 0.0
1.019578 -0.000250 0.0
1.019616 -0.000230 0.0
1.019650 -0.000214 0.0
1.019681 -0.000203 0.0
1.019708 -0.000197 0.0
1.019734 -0.000197 0.0
1.019757 -0.000202 0.0
1.019778 -0.000215 0.0
1.019798 -0.000237 0.0
1.019817 -0.000268 0.0
1.019835 -0.000311 0.0
1.019851 -0.000370 0.0
1.019866 -0.000447 0.0
1.019879 -0.000548 0.0
1.019886 -0.000678 0.0
1.019884 -0.000843 0.0
1.019866 -0.001052 0.0
1.019823 -0.001312 0.0
1.019738 -0.001630 0.0
1.019594 -0.002007 0.0
1.019368 -0.002433 0.0
1.019042 -0.002907 0.0
1.001105 -0.016228 0.0
1.005682 -0.049794 0.0
1.015434 -0.085803 0.0
1.031646 -0.125454 0.0
1.056547 -0.169617 0.0
1.093662 -0.218377 0.0
1.148082 -0.270086 0.0
1.225395 -0.317878 0.0
1.336362 -0.362960 0.0
1.450163 -0.314609 0.0
1.525050 -0.229703 0.0
1.564821 -0.140042 0.0
1.579946 -0.054303 0.0
1.575969 0.023500 0.0
1.555193 0.092700 0.0
1.519438 0.151074 0.0
1.471483 0.196907 0.0
1.414721 0.229591 0.0
1.352727 0.249571 0.0
1.288933 0.258005 0.0
1.226387 0.256363 0.0
1.167588 0.246148 0.0
1.114422 0.228819 0.0
1.068168 0.205891 0.0
1.029544 0.179032 0.0
0.998760 0.150052 0.0
0.975579 0.120755 0.0
0.959381 0.092739 0.0
0.949260 0.067236 0.0
0.944142 0.045031 0.0
0.942913 0.026478 0.0
0.944524 0.011576 0.0
0.948061 0.000073 0.0
0.952780 -0.008435 0.0
0.958117 -0.014418 0.0
0.963659 -0.018348 0.0
0.969128 -0.020666 0.0
0.974345 -0.021757 0.0
0.979210 -0.021945 0.0
0.983673 -0.021493 0.0
0.987721 -0.020605 0.0
0.991364 -0.019442 0.0
0.994624 -0.018120 0.0
0.997530 -0.016727 0.0
1.000113 -0.015322 0.0
1.002406 -0.013950 0.0
1.004437 -0.012636 0.0
1.006236 -0.011399 0.0
1.007828 -0.010248 0.0
1.009236 -0.009187 0.0
1.010480 -0.008216 0.0
1.011580 -0.007333 0.0
1.012553 -0.006534 0.0
1.013412 -0.005813 0.0
1.014171 -0.005166 0.0
1.014841 -0.004586 0.0
1.015433 -0.004067 0.0
1.015956 -0.003604 0.0
1.016418 -0.003192 0.0
1.016826 -0.002825 0.0
1.017186 -0.002500 0.0
1.017503 -0.002211 0.0
1.017784 -0.001954 0.0
1.018032 -0.001727 0.0
1.018250 -0.001526 0.0
1.018443 -0.001348 0.0
1.018613 -0.001191 0.0
1.018763 -0.001052 0.0
1.018896 -0.000929 0.0
1.019013 -0.000821 0.0
1.019116 -0.000726 0.0
1.019207 -0.000642 0.0
1.019287 -0.000568 0.0
1.019358 -0.000503 0.0
1.019420 -0.000447 0.0
1.019475 -0.000397 0.0
1.019524 -0.000355 0.0
1.019566 -0.000319 0.0
1.019604 -0.000288 0.0
1.019637 -0.000263 0.0
1.019666 -0.000243 0.0
1.019691 -0.000229 0.0
1.019713 -0.000220 0.0
1.019732 -0.000217 0.0
1.019748 -0.000221 0.0
1.019761 -0.000232 0.0
1.019772 -0.000251 0.0
1.019780 -0.000280 0.0
1.019784 -0.000321 0.0
1.019784 -0.000377 0.0
1.019779 -0.000450 0.0
1.019766 -0.000545 0.0
1.019743 -0.000665 0.0
1.019705 -0.000815 0.0
1.019645 -0.001002 0.0
1.019554 -0.001228 0.0
1.019421 -0.001497 0.0
1.019233 -0.001807 0.0
1.018975 -0.002149 0.0
1.018636 -0.002526 0.0
1.000708 -0.018041 0.0
1.003688 -0.055536 0.0
1.010235 -0.096362 0.0
1.021688 -0.142560 0.0
1.040603 -0.196326 0.0
1.071626 -0.259806 0.0
1.122933 -0.334384 0.0
1.207036 -0.414995 0.0
1.356871 -0.526645 0.0
1.497886 -0.405740 0.0
1.553488 -0.269060 0.0
1.569258 -0.156226 0.0
1.572262 -0.056249 0.0
1.564722 0.036963 0.0
1.542580 0.122154 0.0
1.505248 0.194706 0.0
1.454891 0.251586 0.0
1.394877 0.291688 0.0
1.328947 0.315398 0.0
1.260844 0.324074 0.0
1.194074 0.319610 0.0
1.131664 0.304109 0.0
1.075960 0.279728 0.0
1.028520 0.248675 0.0
0.990143 0.213248 0.0
0.960961 0.175801 0.0
0.940544 0.138604 0.0
0.928002 0.103630 0.0
0.922107 0.072361 0.0
0.921450 0.045681 0.0
0.924610 0.023897 0.0
0.930297 0.006859 0.0
0.937439 -0.005889 0.0
0.945219 -0.014972 0.0
0.953055 -0.021054 0.0
0.960572 -0.024772 0.0
0.967549 -0.026690 0.0
0.973883 -0.027285 0.0
0.979543 -0.026943 0.0
0.984550 -0.025965 0.0
0.988949 -0.024580 0.0
0.992798 -0.022959 0.0
0.996159 -0.021224 0.0
0.999090 -0.019461 0.0
1.001647 -0.017729 0.0
1.003879 -0.016067 0.0
1.005829 -0.014500 0.0
1.007534 -0.013039 0.0
1.009026 -0.011692 0.0
1.010333 -0.010458 0.0
1.011479 -0.009336 0.0
1.012485 -0.008320 0.0
1.013369 -0.007403 0.0
1.014146 -0.006580 0.0
1.014829 -0.005842 0.0
1.015430 -0.005182 0.0
1.015959 -0.004592 0.0
1.016424 -0.004068 0.0
1.016835 -0.003601 0.0
1.017196 -0.003186 0.0
1.017514 -0.002818 0.0
1.017795 -0.002491 0.0
1.018042 -0.002202 0.0
1.018260 -0.001945 0.0
1.018452 -0.001719 0.0
1.018622 -0.001518 0.0
1.018771 -0.001341 0.0
1.018903 -0.001184 0.0
1.019019 -0.001046 0.0
1.019121 -0.000924 0.0
1.019212 -0.000816 0.0
1.019291 -0.000721 0.0
1.019361 -0.000638 0.0
1.019423 -0.000565 0.0
1.019477 -0.000501 0.0
1.019524 -0.000445 0.0
1.019566 -0.000397 0.0
1.019602 -0.000356 0.0
1.019634 -0.000320 0.0
1.019661 -0.000291 0.0
1.019684 -0.000268 0.0
1.019704 -0.000250 0.0
1.019720 -0.000238 0.0
1.019733 -0.000232 0.0
1.019742 -0.000232 0.0
1.019748 -0.000240 0.0
1.019749 -0.000255 0.0
1.019746 -0.000281 0.0
1.019738 -0.000317 0.0
1.019723 -0.000366 0.0
1.019699 -0.000432 0.0
1.019664 -0.000516 0.0
1.019615 -0.000621 0.0
1.019547 -0.000752 0.0
1.019454 -0.000912 0.0
1.019328 -0.001102 0.0
1.019160 -0.001323 0.0
1.018941 -0.001573 0.0
1.018661 -0.001846 0.0
1.018313 -0.002143 0.0
1.000157 -0.018907 0.0
1.000871 -0.058364 0.0
1.002662 -0.101871 0.0
1.006423 -0.152266 0.0
1.014128 -0.213241 0.0
1.030093 -0.289879 0.0
1.063872 -0.389397 0.0
1.136097 -0.516310 0.0
1.317335 -0.756404 0.0
1.447896 -0.447558 0.0
1.416753 -0.251700 0.0
1.371876 -0.144479 0.0
1.357311 -0.056435 0.0
1.358230 0.043770 0.0
1.352362 0.143358 0.0
1.332925 0.230271 0.0
1.300163 0.299140 0.0
1.256351 0.347960 0.0
1.204694 0.376714 0.0
1.148886 0.386669 0.0
1.092714 0.379957 0.0
1.039644 0.359242 0.0
0.992483 0.327460 0.0
0.953206 0.287660 0.0
0.922919 0.242928 0.0
0.901907 0.196316 0.0
0.889717 0.150697 0.0
0.885285 0.108511 0.0
0.887140 0.071521 0.0
0.893635 0.040683 0.0
0.903173 0.016196 0.0
0.914355 -0.002309 0.0
0.926079 -0.015587 0.0
0.937562 -0.024536 0.0
0.948301 -0.030064 0.0
0.958020 -0.032997 0.0
0.966614 -0.034037 0.0
0.974093 -0.033750 0.0
0.980530 -0.032576 0.0
0.986035 -0.030844 0.0
0.990727 -0.028792 0.0
0.994721 -0.026590 0.0
0.998122 -0.024355 0.0
1.001025 -0.022163 0.0
1.003507 -0.020066 0.0
1.005635 -0.018091 0.0
1.007466 -0.016256 0.0
1.009044 -0.014566 0.0
1.010409 -0.013022 0.0
1.011591 -0.011618 0.0
1.012619 -0.010350 0.0
1.013513 -0.009206 0.0
1.014293 -0.008180 0.0
1.014974 -0.007261 0.0
1.015569 -0.006439 0.0
1.016090 -0.005706 0.0
1.016547 -0.005054 0.0
1.016948 -0.004473 0.0
1.017300 -0.003957 0.0
1.017609 -0.003500 0.0
1.017881 -0.003094 0.0
1.018119 -0.002734 0.0
1.018330 -0.002416 0.0
1.018515 -0.002134 0.0
1.018677 -0.001885 0.0
1.018821 -0.001665 0.0
1.018947 -0.001470 0.0
1.019058 -0.001298 0.0
1.019156 -0.001146 0.0
1.019242 -0.001012 0.0
1.019318 -0.000894 0.0
1.019385 -0.000790 0.0
1.019443 -0.000698 0.0
1.019495 -0.000618 0.0
1.019540 -0.000547 0.0
1.019579 -0.000486 0.0
1.019613 -0.000432 0.0
1.019643 -0.000386 0.0
1.019668 -0.000347 0.0
1.019689 -0.000314 0.0
1.019707 -0.000286 0.0
1.019721 -0.000265 0.0
1.019731 -0.000249 0.0
1.019738 -0.000239 0.0
1.019740 -0.000236 0.0
1.019738 -0.000239 0.0
1.019731 -0.000250 0.0
1.019718 -0.000270 0.0
1.019698 -0.000299 0.0
1.019669 -0.000340 0.0
1.019630 -0.000395 0.0
1.019577 -0.000465 0.0
1.019506 -0.000553 0.0
1.019414 -0.000661 0.0
1.019295 -0.000791 0.0
1.019143 -0.000944 0.0
1.018950 -0.001120 0.0
1.018709 -0.001316 0.0
1.018415 -0.001528 0.0
1.018060 -0.001758 0.0
0.999498 -0.018562 0.0
0.997479 -0.057404 0.0
0.993366 -0.100508 0.0
0.987047 -0.151070 0.0
0.978608 -0.213703 0.0
0.969095 -0.295868 0.0
0.962902 -0.410993 0.0
0.976396 -0.580433 0.0
1.096425 -0.993549 0.0
1.104466 -0.223057 0.0
0.910395 -0.111001 0.0
0.773832 -0.089708 0.0
0.745534 -0.068342 0.0
0.799201 0.001090 0.0
0.871081 0.120026 0.0
0.919530 0.224590 0.0
0.947511 0.309602 0.0
0.956638 0.372183 0.0
0.949696 0.411089 0.0
0.930992 0.426806 0.0
0.905572 0.421414 0.0
0.878319 0.398108 0.0
0.853380 0.360693 0.0
0.833853 0.313231 0.0
0.821634 0.259864 0.0
0.817372 0.204655 0.0
0.820603 0.151317 0.0
0.830075 0.102851 0.0
0.844133 0.061270 0.0
0.861053 0.027519 0.0
0.879257 0.001619 0.0
0.897474 -0.017130 0.0
0.914784 -0.029800 0.0
0.930576 -0.037599 0.0
0.944535 -0.041699 0.0
0.956580 -0.043126 0.0
0.966791 -0.042713 0.0
0.975342 -0.041103 0.0
0.982450 -0.038768 0.0
0.988334 -0.036042 0.0
0.993202 -0.033154 0.0
0.997235 -0.030255 0.0
1.000585 -0.027442 0.0
1.003379 -0.024773 0.0
1.005720 -0.022279 0.0
1.007689 -0.019976 0.0
1.009354 -0.017866 0.0
1.010768 -0.015947 0.0
1.011973 -0.014210 0.0
1.013005 -0.012644 0.0
1.013891 -0.011237 0.0
1.014655 -0.009977 0.0
1.015315 -0.008849 0.0
1.015887 -0.007844 0.0
1.016383 -0.006948 0.0
1.016815 -0.006151 0.0
1.017192 -0.005442 0.0
1.017520 -0.004814 0.0
1.017808 -0.004256 0.0
1.018059 -0.003762 0.0
1.018280 -0.003324 0.0
1.018473 -0.002936 0.0
1.018642 -0.002594 0.0
1.018791 -0.002290 0.0
1.018922 -0.002022 0.0
1.019037 -0.001785 0.0
1.019138 -0.001576 0.0
1.019227 -0.001391 0.0
1.019305 -0.001228 0.0
1.019373 -0.001084 0.0
1.019434 -0.000958 0.0
1.019487 -0.000846 0.0
1.019533 -0.000747 0.0
1.019573 -0.000661 0.0
1.019609 -0.000585 0.0
1.019639 -0.000518 0.0
1.019666 -0.000460 0.0
1.019688 -0.000410 0.0
1.019706 -0.000367 0.0
1.019722 -0.000330 0.0
1.019733 -0.000299 0.0
1.019741 -0.000274 0.0
1.019746 -0.000255 0.0
1.019746 -0.000241 0.0
1.019742 -0.000233 0.0
1.019734 -0.000231 0.0
1.019719 -0.000236 0.0
1.019697 -0.000249 0.0
1.019667 -0.000270 0.0
1.019627 -0.000301 0.0
1.019574 -0.000342 0.0
1.019506 -0.000396 0.0
1.019419 -0.000464 0.0
1.019309 -0.000547 0.0
1.019170 -0.000647 0.0
1.018999 -0.000764 0.0
1.018788 -0.000896 0.0
1.018532 -0.001043 0.0
1.018227 -0.001201 0.0
1.017868 -0.001372 0.0
0.998845 -0.016905 0.0
0.994102 -0.052298 0.0
0.984039 -0.091438 0.0
0.967291 -0.137074 0.0
0.941298 -0.193268 0.0
0.901369 -0.266860 0.0
0.838438 -0.370878 0.0
0.735821 -0.531425 0.0
0.335962 -0.888685 0.0
-0.505908 0.340489 0.0
-0.505908 0.000000 0.0
-0.037244 -0.025058 0.0
-0.024652 -0.129473 0.0
0.127909 -0.144008 0.0
0.322007 -0.000854 0.0
0.466248 0.152781 0.0
0.554665 0.265012 0.0
0.612892 0.349419 0.0
0.648273 0.405414 0.0
0.666800 0.432658 0.0
0.674602 0.433179 0.0
0.677439 0.410758 0.0
0.680209 0.370212 0.0
0.686507 0.316941 0.0
0.698319 0.256561 0.0
0.716064 0.194474 0.0
0.739009 0.135321 0.0
0.765809 0.082576 0.0
0.794870 0.038425 0.0
0.824578 0.003736 0.0
0.853472 -0.021696 0.0
0.880341 -0.038901 0.0
0.904338 -0.049336 0.0
0.925068 -0.054586 0.0
0.942511 -0.056114 0.0
0.956897 -0.055142 0.0
0.968596 -0.052607 0.0
0.978024 -0.049189 0.0
0.985588 -0.045353 0.0
0.991648 -0.041402 0.0
0.996513 -0.037526 0.0
1.000432 -0.033834 0.0
1.003605 -0.030386 0.0
1.006188 -0.027206 0.0
1.008304 -0.024302 0.0
1.010048 -0.021666 0.0
1.011494 -0.019287 0.0
1.012700 -0.017147 0.0
1.013712 -0.015228 0.0
1.014564 -0.013511 0.0
1.015286 -0.011979 0.0
1.015901 -0.010613 0.0
1.016425 -0.009398 0.0
1.016875 -0.008317 0.0
1.017262 -0.007358 0.0
1.017596 -0.006506 0.0
1.017884 -0.005752 0.0
1.018134 -0.005083 0.0
1.018352 -0.004491 0.0
1.018541 -0.003967 0.0
1.018706 -0.003504 0.0
1.018850 -0.003094 0.0
1.018976 -0.002732 0.0
1.019086 -0.002411 0.0
1.019182 -0.002128 0.0
1.019267 -0.001879 0.0
1.019341 -0.001658 0.0
1.019406 -0.001463 0.0
1.019463 -0.001291 0.0
1.019513 -0.001140 0.0
1.019557 -0.001006 0.0
1.019595 -0.000888 0.0
1.019628 -0.000785 0.0
1.019657 -0.000693 0.0
1.019682 -0.000613 0.0
1.019704 -0.000542 0.0
1.019722 -0.000481 0.0
1.019737 -0.000427 0.0
1.019748 -0.000380 0.0
1.019757 -0.000340 0.0
1.019763 -0.000306 0.0
1.019765 -0.000278 0.0
1.019764 -0.000254 0.0
1.019759 -0.000237 0.0
1.019750 -0.000224 0.0
1.019735 -0.000217 0.0
1.019714 -0.000215 0.0
1.019685 -0.000220 0.0
1.019647 -0.000231 0.0
1.019597 -0.000250 0.0
1.019534 -0.000277 0.0
1.019455 -0.000313 0.0
1.019355 -0.000360 0.0
1.019231 -0.000417 0.0
1.019079 -0.000486 0.0
1.018894 -0.000567 0.0
1.018670 -0.000658 0.0
1.018404 -0.000760 0.0
1.018092 -0.000868 0.0
1.017729 -0.000985 0.0
0.998335 -0.014085 0.0
0.991479 -0.043520 0.0
0.976854 -0.075529 0.0
0.952275 -0.111656 0.0
0.913502 -0.153920 0.0
0.852353 -0.205129 0.0
0.751851 -0.269177 0.0
0.572362 -0.351020 0.0
0.227926 -0.442638 0.0
0.000000 0.340489 0.0
-0.000000 -0.000000 0.0
0.000000 0.000000 0.0
-0.087723 -0.089654 0.0
-0.172523 -0.249655 0.0
-0.075081 -0.186748 0.0
0.097187 0.022166 0.0
0.222533 0.181863 0.0
0.305188 0.291686 0.0
0.365554 0.367402 0.0
0.409696 0.408002 0.0
0.443830 0.415900 0.0
0.473439 0.395591 0.0
0.502970 0.353077 0.0
0.535331 0.295416 0.0
0.571724 0.229881 0.0
0.612009 0.163125 0.0
0.655309 0.100425 0.0
0.700519 0.045462 0.0
0.746186 0.000810 0.0
0.790330 -0.032499 0.0
0.831023 -0.055048 0.0
0.866992 -0.068387 0.0
0.897682 -0.074537 0.0
0.923101 -0.075533 0.0
0.943643 -0.073151 0.0
0.959931 -0.068779 0.0
0.972676 -0.063412 0.0
0.982569 -0.057705 0.0
0.990226 -0.052057 0.0
0.996157 -0.046690 0.0
1.000769 -0.041715 0.0
1.004375 -0.037171 0.0
1.007213 -0.033060 0.0
1.009463 -0.029365 0.0
1.011260 -0.026056 0.0
1.012704 -0.023101 0.0
1.013874 -0.020468 0.0
1.014827 -0.018125 0.0
1.015609 -0.016043 0.0
1.016254 -0.014194 0.0
1.016789 -0.012554 0.0
1.017236 -0.011099 0.0
1.017611 -0.009811 0.0
1.017927 -0.008670 0.0
1.018194 -0.007659 0.0
1.018421 -0.006766 0.0
1.018615 -0.005975 0.0
1.018781 -0.005276 0.0
1.018924 -0.004658 0.0
1.019047 -0.004112 0.0
1.019153 -0.003630 0.0
1.019245 -0.003204 0.0
1.019325 -0.002827 0.0
1.019394 -0.002495 0.0
1.019455 -0.002202 0.0
1.019507 -0.001943 0.0
1.019553 -0.001714 0.0
1.019593 -0.001512 0.0
1.019628 -0.001334 0.0
1.019659 -0.001177 0.0
1.019685 -0.001039 0.0
1.019708 -0.000917 0.0
1.019728 -0.000809 0.0
1.019745 -0.000714 0.0
1.019759 -0.000631 0.0
1.019771 -0.000558 0.0
1.019781 -0.000493 0.0
1.019788 -0.000437 0.0
1.019793 -0.000387 0.0
1.019796 -0.000344 0.0
1.019796 -0.000307 0.0
1.019793 -0.000276 0.0
1.019787 -0.000249 0.0
1.019777 -0.000227 0.0
1.019762 -0.000209 0.0
1.019742 -0.000196 0.0
1.019716 -0.000188 0.0
1.019681 -0.000184 0.0
1.019637 -0.000185 0.0
1.019581 -0.000191 0.0
1.019511 -0.000203 0.0
1.019423 -0.000220 0.0
1.019315 -0.000245 0.0
1.019182 -0.000276 0.0
1.019021 -0.000314 0.0
1.018826 -0.000359 0.0
1.018595 -0.000411 0.0
1.018322 -0.000468 0.0
1.018005 -0.000530 0.0
1.017641 -0.000596 0.0
0.998069 -0.010489 0.0
0.990139 -0.032329 0.0
0.973326 -0.055282 0.0
0.945440 -0.079437 0.0
0.902519 -0.104445 0.0
0.837861 -0.128798 0.0
0.740525 -0.147671 0.0
0.595386 -0.147896 0.0
0.392853 -0.090679 0.0
0.138468 0.119915 0.0
0.000000 0.000000 0.0
-0.000000 -0.000000 0.0
0.000000 0.000000 0.0
-0.121487 -0.126288 0.0
-0.244973 -0.279270 0.0
-0.164630 -0.137923 0.0
-0.026207 0.078183 0.0
0.067630 0.218874 0.0
0.136098 0.311379 0.0
0.193698 0.362282 0.0
0.245610 0.375574 0.0
0.295586 0.356332 0.0
0.346734 0.311658 0.0
0.400940 0.250268 0.0
0.458919 0.180656 0.0
0.520761 0.110223 0.0
0.586302 0.044485 0.0
0.652944 -0.010451 0.0
0.716184 -0.052185 0.0
0.773191 -0.080655 0.0
0.822877 -0.097270 0.0
0.865005 -0.104263 0.0
0.899810 -0.104157 0.0
0.927843 -0.099365 0.0
0.949888 -0.091907 0.0
0.966867 -0.083291 0.0
0.979736 -0.074514 0.0
0.989390 -0.066150 0.0
0.996599 -0.058478 0.0
1.001987 -0.051588 0.0
1.006031 -0.045472 0.0
1.009086 -0.040074 0.0
1.011410 -0.035320 0.0
1.013192 -0.031137 0.0
1.014567 -0.027455 0.0
1.015635 -0.024214 0.0
1.016470 -0.021359 0.0
1.017125 -0.018843 0.0
1.017643 -0.016624 0.0
1.018054 -0.014668 0.0
1.018381 -0.012942 0.0
1.018644 -0.011420 0.0
1.018855 -0.010076 0.0
1.019027 -0.008891 0.0
1.019166 -0.007845 0.0