# vtk DataFile Version 3.0
Vector Field
ASCII
DATASET RECTILINEAR_GRID
DIMENSIONS 100 26 1
X_COORDINATES 100 double
0.050000 0.150000 0.250000 0.350000 0.450000 0.550000 0.650000 0.750000 0.850000 0.950000 1.050000 1.150000 1.250000 1.350000 1.450000 1.550000 1.650000 1.750000 1.850000 1.950000 2.050000 2.150000 2.250000 2.350000 2.450000 2.550000 2.650000 2.750000 2.850000 2.950000 3.050000 3.150000 3.250000 3.350000 3.450000 3.550000 3.650000 3.750000 3.850000 3.950000 4.050000 4.150000 4.250000 4.350000 4.450000 4.550000 4.650000 4.750000 4.850000 4.950000 5.050000 5.150000 5.250000 5.350000 5.450000 5.550000 5.650000 5.750000 5.850000 5.950000 6.050000 6.150000 6.250000 6.350000 6.450000 6.550000 6.650000 6.750000 6.850000 6.950000 7.050000 7.150000 7.250000 7.350000 7.450000 7.550000 7.650000 7.750000 7.850000 7.950000 8.050000 8.150000 8.250000 8.350000 8.450000 8.550000 8.650000 8.750000 8.850000 8.950000 9.050000 9.150000 9.250000 9.350000 9.450000 9.550000 9.650000 9.750000 9.850000 9.950000 
Y_COORDINATES 26 double
0.050000 0.150000 0.250000 0.350000 0.450000 0.550000 0.650000 0.750000 0.850000 0.950000 1.050000 1.150000 1.250000 1.350000 1.450000 1.550000 1.650000 1.750000 1.850000 1.950000 2.050000 2.150000 2.250000 2.350000 2.450000 2.550000 
Z_COORDINATES 1 double
0.0
POINT_DATA 2600
VECTORS Vektorfeld double
0.997659 0.002341 0.0
0.992822 0.002495 0.0
0.989211 0.001116 0.0
0.988995 -0.000901 0.0
0.993060 -0.003164 0.0
1.001640 -0.005416 0.0
1.014473 -0.007417 0.0
1.030812 -0.008922 0.0
1.049455 -0.009721 0.0
1.068873 -0.009698 0.0
1.087459 -0.008888 0.0
1.103816 -0.007468 0.0
1.116966 -0.005682 0.0
1.126416 -0.003769 0.0
1.132111 -0.001926 0.0
1.134335 -0.000298 0.0
1.133631 0.001002 0.0
1.130565 0.002064 0.0
1.125531 0.002971 0.0
1.118707 0.003853 0.0
1.109985 0.004869 0.0
1.098937 0.006179 0.0
1.084860 0.007899 0.0
1.066898 0.010063 0.0
1.044215 0.012619 0.0
1.016164 0.015433 0.0
0.982411 0.018320 0.0
0.943011 0.021080 0.0
0.898417 0.023514 0.0
0.849452 0.025450 0.0
0.797259 0.026743 0.0
0.743239 0.027277 0.0
0.688992 0.026970 0.0
0.636249 0.025772 0.0
0.586807 0.023670 0.0
0.542435 0.020702 0.0
0.504807 0.016927 0.0
0.475604 0.012276 0.0
0.456909 0.006419 0.0
0.450812 -0.000322 0.0
0.456515 -0.005381 0.0
0.470162 -0.008266 0.0
0.487919 -0.009491 0.0
0.506994 -0.009584 0.0
0.525457 -0.008879 0.0
0.541899 -0.007562 0.0
0.555240 -0.005779 0.0
0.564751 -0.003731 0.0
0.570126 -0.001644 0.0
0.571092 0.000679 0.0
0.566513 0.003900 0.0
0.554897 0.007715 0.0
0.535450 0.011732 0.0
0.508228 0.015490 0.0
0.474384 0.018354 0.0
0.436573 0.019456 0.0
0.399095 0.018022 0.0
0.366961 0.014112 0.0
0.343836 0.009013 0.0
0.330336 0.004487 0.0
0.324317 0.001533 0.0
0.322795 -0.000011 0.0
0.323624 -0.000818 0.0
0.325917 -0.001474 0.0
0.329486 -0.002095 0.0
0.334007 -0.002426 0.0
0.338898 -0.002465 0.0
0.343654 -0.002290 0.0
0.347891 -0.001947 0.0
0.351310 -0.001473 0.0
0.353681 -0.000899 0.0
0.354797 -0.000217 0.0
0.354269 0.000745 0.0
0.351625 0.001900 0.0
0.346813 0.002912 0.0
0.340359 0.003541 0.0
0.333162 0.003656 0.0
0.326277 0.003229 0.0
0.320701 0.002347 0.0
0.317189 0.001165 0.0
0.316094 -0.000070 0.0
0.316953 -0.000789 0.0
0.318701 -0.000959 0.0
0.320448 -0.000788 0.0
0.321672 -0.000436 0.0
0.322090 0.000018 0.0
0.321549 0.000523 0.0
0.320128 0.000899 0.0
0.318182 0.001046 0.0
0.316165 0.000971 0.0
0.314465 0.000729 0.0
0.313401 0.000336 0.0
0.313263 -0.000197 0.0
0.314078 -0.000618 0.0
0.315509 -0.000813 0.0
0.317127 -0.000805 0.0
0.318566 -0.000634 0.0
0.319518 -0.000318 0.0
0.319751 0.000085 0.0
0.319092 0.000575 0.0
1.002952 0.001731 0.0
1.011406 -0.000512 0.0
1.024404 -0.005264 0.0
1.041332 -0.011234 0.0
1.062134 -0.017697 0.0
1.086724 -0.024054 0.0
1.114776 -0.029665 0.0
1.145600 -0.033836 0.0
1.178084 -0.035935 0.0
1.210766 -0.035585 0.0
1.242090 -0.032910 0.0
1.270762 -0.028475 0.0
1.295967 -0.023031 0.0
1.317396 -0.017299 0.0
1.335150 -0.011845 0.0
1.349595 -0.007048 0.0
1.361154 -0.003103 0.0
1.370292 0.000096 0.0
1.377474 0.002792 0.0
1.382945 0.005384 0.0
1.386614 0.008390 0.0
1.387991 0.012328 0.0
1.386249 0.017569 0.0
1.380380 0.024224 0.0
1.369401 0.032119 0.0
1.352553 0.040832 0.0
1.329437 0.049789 0.0
1.300081 0.058367 0.0
1.264933 0.065969 0.0
1.224820 0.072073 0.0
1.180885 0.076248 0.0
1.134522 0.078154 0.0
1.087322 0.077541 0.0
1.041009 0.074257 0.0
0.997376 0.068260 0.0
0.958220 0.059640 0.0
0.925260 0.048579 0.0
0.899855 0.035232 0.0
0.882162 0.019851 0.0
0.870670 0.003835 0.0
0.864790 -0.009361 0.0
0.865284 -0.018425 0.0
0.872235 -0.024040 0.0
0.885200 -0.027076 0.0
0.903441 -0.028091 0.0
0.925919 -0.027270 0.0
0.951085 -0.024580 0.0
0.976589 -0.019946 0.0
0.999125 -0.013341 0.0
1.015220 -0.004685 0.0
1.023047 0.006017 0.0
1.022081 0.018180 0.0
1.012116 0.030681 0.0
0.993712 0.042167 0.0
0.968214 0.051019 0.0
0.937391 0.055425 0.0
0.902828 0.054094 0.0
0.865557 0.047446 0.0
0.826416 0.037944 0.0
0.786931 0.028540 0.0
0.749844 0.020586 0.0
0.718816 0.013485 0.0
0.697376 0.006297 0.0
0.687168 -0.000673 0.0
0.686571 -0.005869 0.0
0.692274 -0.008876 0.0
0.701845 -0.010477 0.0
0.713911 -0.011100 0.0
0.727374 -0.010836 0.0
0.741097 -0.009725 0.0
0.753859 -0.007780 0.0
0.764474 -0.005068 0.0
0.772365 -0.001767 0.0
0.777849 0.001573 0.0
0.781499 0.004401 0.0
0.783732 0.006273 0.0
0.784953 0.006900 0.0
0.785549 0.006273 0.0
0.785737 0.004691 0.0
0.785408 0.002663 0.0
0.784084 0.000850 0.0
0.781511 0.000004 0.0
0.777826 0.000185 0.0
0.773010 0.001137 0.0
0.766875 0.002550 0.0
0.759409 0.004080 0.0
0.751057 0.005354 0.0
0.742564 0.005983 0.0
0.734690 0.005782 0.0
0.728143 0.004799 0.0
0.723517 0.003226 0.0
0.721172 0.001249 0.0
0.720983 -0.000783 0.0
0.722355 -0.002220 0.0
0.724666 -0.002952 0.0
0.727517 -0.003136 0.0
0.730668 -0.002893 0.0
0.733837 -0.002180 0.0
0.736372 -0.000821 0.0
0.737022 0.001489 0.0
1.001861 -0.003083 0.0
1.008484 -0.010774 0.0
1.020484 -0.020000 0.0
1.037334 -0.030276 0.0
1.058920 -0.041041 0.0
1.085189 -0.051570 0.0
1.115885 -0.060898 0.0
1.150303 -0.067843 0.0
1.187109 -0.071218 0.0
1.224306 -0.070179 0.0
1.259670 -0.065004 0.0
1.291485 -0.056867 0.0
1.318852 -0.047210 0.0
1.341613 -0.037310 0.0
1.360132 -0.028107 0.0
1.375080 -0.020180 0.0
1.387298 -0.013747 0.0
1.397642 -0.008743 0.0
1.406850 -0.004759 0.0
1.415406 -0.001092 0.0
1.423420 0.003184 0.0
1.430539 0.009040 0.0
1.435922 0.017217 0.0
1.438413 0.027954 0.0
1.436839 0.040943 0.0
1.430257 0.055438 0.0
1.418118 0.070438 0.0
1.400311 0.084882 0.0
1.377123 0.097789 0.0
1.349168 0.108322 0.0
1.317301 0.115802 0.0
1.282561 0.119703 0.0
1.246108 0.119644 0.0
1.209182 0.115393 0.0
1.173040 0.106899 0.0
1.138875 0.094321 0.0
1.107680 0.078053 0.0
1.080026 0.058817 0.0
1.055969 0.038016 0.0
1.035349 0.017781 0.0
1.018354 -0.000434 0.0
1.006092 -0.015583 0.0
0.999898 -0.027639 0.0
1.000546 -0.037091 0.0
1.008385 -0.044156 0.0
1.023273 -0.048569 0.0
1.044495 -0.049669 0.0
1.070754 -0.046620 0.0
1.100193 -0.038641 0.0
1.130249 -0.025536 0.0
1.157535 -0.008246 0.0
1.179121 0.011822 0.0
1.193498 0.032628 0.0
1.200021 0.052100 0.0
1.198534 0.068071 0.0
1.189129 0.078603 0.0
1.171952 0.082655 0.0
1.147389 0.080719 0.0
1.116601 0.074600 0.0
1.081838 0.066132 0.0
1.045907 0.056013 0.0
1.010931 0.044062 0.0
0.977496 0.030595 0.0
0.945541 0.017192 0.0
0.916885 0.005518 0.0
0.895109 -0.004191 0.0
0.882058 -0.011682 0.0
0.876707 -0.016609 0.0
0.877157 -0.019240 0.0
0.881946 -0.019835 0.0
0.889993 -0.018479 0.0
0.900401 -0.015391 0.0
0.912244 -0.011178 0.0
0.924421 -0.006678 0.0
0.936045 -0.002622 0.0
0.946767 0.000341 0.0
0.956590 0.001789 0.0
0.965657 0.001721 0.0
0.974148 0.000565 0.0
0.982209 -0.000943 0.0
0.989974 -0.001986 0.0
0.997497 -0.002110 0.0
1.004658 -0.001176 0.0
1.011247 0.000724 0.0
1.017040 0.003305 0.0
1.021711 0.006120 0.0
1.024783 0.008593 0.0
1.025709 0.010311 0.0
1.023967 0.011070 0.0
1.019190 0.010834 0.0
1.011268 0.009739 0.0
1.000331 0.008018 0.0
0.986942 0.006027 0.0
0.972526 0.004014 0.0
0.959155 0.001874 0.0
0.948779 -0.000438 0.0
0.942544 -0.002506 0.0
0.940282 -0.003475 0.0
0.940846 -0.002625 0.0
0.940959 0.002530 0.0
1.001479 -0.006423 0.0
1.007192 -0.019769 0.0
1.018289 -0.034103 0.0
1.034688 -0.049423 0.0
1.056583 -0.065374 0.0
1.084255 -0.081178 0.0
1.117790 -0.095522 0.0
1.156664 -0.106511 0.0
1.199343 -0.112037 0.0
1.242785 -0.109999 0.0
1.283322 -0.101086 0.0
1.318464 -0.087742 0.0
1.347309 -0.072548 0.0
1.370086 -0.057510 0.0
1.387632 -0.043971 0.0
1.401076 -0.032709 0.0
1.411666 -0.024025 0.0
1.420650 -0.017793 0.0
1.429165 -0.013432 0.0
1.438072 -0.009882 0.0
1.447693 -0.005662 0.0
1.457592 0.000868 0.0
1.466591 0.011006 0.0
1.473067 0.025197 0.0
1.475421 0.042921 0.0
1.472502 0.062963 0.0
1.463783 0.083771 0.0
1.449340 0.103800 0.0
1.429685 0.121714 0.0
1.405584 0.136454 0.0
1.377905 0.147215 0.0
1.347534 0.153403 0.0
1.315325 0.154605 0.0
1.282089 0.150593 0.0
1.248573 0.141357 0.0
1.215438 0.127163 0.0
1.183220 0.108624 0.0
1.152321 0.086799 0.0
1.123142 0.063270 0.0
1.096386 0.039904 0.0
1.072997 0.017827 0.0
1.054029 -0.002613 0.0
1.040760 -0.021145 0.0
1.034327 -0.037800 0.0
1.035385 -0.052345 0.0
1.044114 -0.063998 0.0
1.060271 -0.071620 0.0
1.083360 -0.074016 0.0
1.112743 -0.070067 0.0
1.147474 -0.058898 0.0
1.185718 -0.040414 0.0
1.224040 -0.015917 0.0
1.257988 0.012042 0.0
1.284417 0.039734 0.0
1.302164 0.064176 0.0
1.310757 0.083311 0.0
1.309930 0.095952 0.0
1.299862 0.102053 0.0
1.281468 0.102447 0.0
1.256387 0.098129 0.0
1.226532 0.089803 0.0
1.193612 0.078167 0.0
1.159149 0.064388 0.0
1.124759 0.049745 0.0
1.091653 0.034727 0.0
1.060111 0.019918 0.0
1.030811 0.006559 0.0
1.005878 -0.004568 0.0
0.987202 -0.013054 0.0
0.974909 -0.018516 0.0
0.968056 -0.020990 0.0
0.965554 -0.020786 0.0
0.966344 -0.018416 0.0
0.969412 -0.014685 0.0
0.973861 -0.010688 0.0
0.979028 -0.007482 0.0
0.984622 -0.005805 0.0
0.990787 -0.005917 0.0
0.998056 -0.007558 0.0
1.007237 -0.010062 0.0
1.019199 -0.012594 0.0
1.034569 -0.014394 0.0
1.053417 -0.014900 0.0
1.075099 -0.013822 0.0
1.098315 -0.011157 0.0
1.121388 -0.007162 0.0
1.142533 -0.002343 0.0
1.160141 0.002714 0.0
1.173077 0.007473 0.0
1.180723 0.011561 0.0
1.182877 0.014780 0.0
1.179751 0.017040 0.0
1.171986 0.018158 0.0
1.160473 0.017811 0.0
1.146071 0.015849 0.0
1.129548 0.012486 0.0
1.111914 0.008439 0.0
1.095003 0.004754 0.0
1.081129 0.002457 0.0
1.071950 0.006515 0.0
1.001285 -0.009187 0.0
1.006394 -0.027827 0.0
1.016665 -0.047413 0.0
1.032439 -0.068287 0.0
1.054398 -0.090362 0.0
1.083455 -0.112919 0.0
1.120447 -0.134309 0.0
1.165456 -0.151607 0.0
1.217156 -0.161320 0.0
1.270337 -0.157340 0.0
1.318023 -0.141968 0.0
1.356652 -0.120630 0.0
1.385912 -0.097765 0.0
1.407017 -0.076174 0.0
1.421641 -0.057478 0.0
1.431540 -0.042546 0.0
1.438459 -0.031697 0.0
1.444125 -0.024771 0.0
1.450212 -0.021056 0.0
1.458178 -0.019132 0.0
1.468879 -0.016735 0.0
1.481977 -0.011055 0.0
1.495591 0.000317 0.0
1.506868 0.018133 0.0
1.513166 0.041332 0.0
1.512786 0.067851 0.0
1.505141 0.095247 0.0
1.490600 0.121308 0.0
1.470125 0.144336 0.0
1.444902 0.163156 0.0
1.416096 0.176997 0.0
1.384721 0.185366 0.0
1.351604 0.187967 0.0
1.317396 0.184676 0.0
1.282609 0.175577 0.0
1.247668 0.161019 0.0
1.212963 0.141690 0.0
1.178942 0.118653 0.0
1.146238 0.093299 0.0
1.115779 0.067090 0.0
1.088693 0.041115 0.0
1.065953 0.015806 0.0
1.048281 -0.008622 0.0
1.036221 -0.031830 0.0
1.030067 -0.053219 0.0
1.029956 -0.071742 0.0
1.036137 -0.086215 0.0
1.049262 -0.095635 0.0
1.070408 -0.098977 0.0
1.100616 -0.094927 0.0
1.140110 -0.082122 0.0
1.187461 -0.059882 0.0
1.238731 -0.029213 0.0
1.286951 0.006340 0.0
1.325583 0.041190 0.0
1.352398 0.070888 0.0
1.367624 0.093976 0.0
1.371813 0.109908 0.0
1.365938 0.118862 0.0
1.351345 0.121387 0.0
1.329569 0.118175 0.0
1.302158 0.110126 0.0
1.270666 0.098383 0.0
1.236664 0.084142 0.0
1.201631 0.068471 0.0
1.166933 0.052414 0.0
1.133682 0.036614 0.0
1.102411 0.021581 0.0
1.073566 0.008319 0.0
1.048193 -0.002224 0.0
1.027250 -0.009486 0.0
1.010655 -0.013194 0.0
0.997475 -0.013617 0.0
0.986548 -0.011624 0.0
0.976907 -0.008558 0.0
0.968064 -0.005935 0.0
0.960192 -0.005075 0.0
0.954155 -0.006774 0.0
0.951285 -0.011101 0.0
0.953030 -0.017443 0.0
0.960600 -0.024746 0.0
0.974717 -0.031730 0.0
0.995488 -0.037185 0.0
1.022456 -0.040187 0.0
1.054661 -0.040213 0.0
1.090640 -0.037158 0.0
1.128402 -0.031254 0.0
1.165456 -0.023035 0.0
1.199020 -0.013278 0.0
1.226581 -0.002894 0.0
1.246583 0.007079 0.0
1.258798 0.015653 0.0
1.263880 0.022228 0.0
1.262689 0.026446 0.0
1.256160 0.028144 0.0
1.245414 0.027460 0.0
1.231769 0.024743 0.0
1.216601 0.020528 0.0
1.201322 0.015835 0.0
1.189334 0.014305 0.0
1.001091 -0.011563 0.0
1.005488 -0.034957 0.0
1.014543 -0.059609 0.0
1.028973 -0.086295 0.0
1.050054 -0.115394 0.0
1.079645 -0.146535 0.0
1.119970 -0.178009 0.0
1.172652 -0.205598 0.0
1.238280 -0.224655 0.0
1.306352 -0.215259 0.0
1.361963 -0.187347 0.0
1.401446 -0.153364 0.0
1.427212 -0.120056 0.0
1.442639 -0.090414 0.0
1.450585 -0.065809 0.0
1.453408 -0.046936 0.0
1.453219 -0.034037 0.0
1.452097 -0.026974 0.0
1.452255 -0.025097 0.0
1.456056 -0.026858 0.0
1.465511 -0.029164 0.0
1.481191 -0.027403 0.0
1.501109 -0.016868 0.0
1.520418 0.004732 0.0
1.533829 0.035025 0.0
1.538331 0.070034 0.0
1.533216 0.105823 0.0
1.519274 0.139214 0.0
1.498053 0.168126 0.0
1.471256 0.191386 0.0
1.440411 0.208419 0.0
1.406745 0.218986 0.0
1.371181 0.223028 0.0
1.334392 0.220613 0.0
1.296873 0.211947 0.0
1.259031 0.197433 0.0
1.221291 0.177722 0.0
1.184203 0.153730 0.0
1.148542 0.126587 0.0
1.115297 0.097507 0.0
1.085443 0.067638 0.0
1.059488 0.037977 0.0
1.037058 0.009308 0.0
1.017160 -0.017804 0.0
0.999157 -0.043089 0.0
0.983460 -0.066063 0.0
0.971710 -0.086325 0.0
0.966767 -0.103706 0.0
0.972065 -0.117350 0.0
0.990415 -0.125113 0.0
1.023107 -0.124121 0.0
1.069684 -0.111810 0.0
1.127985 -0.086856 0.0
1.193800 -0.050050 0.0
1.258846 -0.006097 0.0
1.312745 0.037461 0.0
1.350929 0.073994 0.0
1.374424 0.102205 0.0
1.384851 0.122013 0.0
1.383886 0.133793 0.0
1.373215 0.138217 0.0
1.354495 0.136215 0.0
1.329362 0.128919 0.0
1.299424 0.117545 0.0
1.266234 0.103291 0.0
1.231250 0.087276 0.0
1.195776 0.070477 0.0
1.160934 0.053832 0.0
1.127616 0.038231 0.0
1.096279 0.024574 0.0
1.066901 0.014037 0.0
1.039192 0.007586 0.0
1.012644 0.005332 0.0
0.986695 0.006302 0.0
0.961264 0.008587 0.0
0.937144 0.009884 0.0
0.915904 0.008218 0.0
0.899388 0.002486 0.0
0.889278 -0.007382 0.0
0.886864 -0.020493 0.0
0.892728 -0.035129 0.0
0.906624 -0.049358 0.0
0.927808 -0.061513 0.0
0.955360 -0.070379 0.0
0.988320 -0.075186 0.0
1.025688 -0.075532 0.0
1.066346 -0.071300 0.0
1.108954 -0.062651 0.0
1.151837 -0.050110 0.0
1.192882 -0.034667 0.0
1.229551 -0.017818 0.0
1.259251 -0.001366 0.0
1.280412 0.013004 0.0
1.293159 0.024114 0.0
1.298514 0.031650 0.0
1.297645 0.035570 0.0
1.291862 0.036061 0.0
1.282658 0.033582 0.0
1.271787 0.028929 0.0
1.262159 0.022827 0.0
1.000816 -0.013470 0.0
1.004133 -0.040763 0.0
1.011133 -0.069857 0.0
1.022799 -0.102143 0.0
1.040975 -0.138803 0.0
1.068685 -0.180426 0.0
1.110364 -0.226122 0.0
1.170991 -0.270794 0.0
1.258207 -0.312303 0.0
1.347081 -0.284557 0.0
1.405032 -0.231610 0.0
1.435554 -0.179106 0.0
1.448882 -0.133408 0.0
1.451672 -0.095280 0.0
1.447536 -0.064753 0.0
1.438760 -0.042039 0.0
1.427195 -0.027180 0.0
1.414646 -0.020160 0.0
1.403363 -0.020786 0.0
1.396597 -0.028204 0.0
1.398329 -0.039006 0.0
1.411470 -0.046381 0.0
1.435877 -0.042214 0.0
1.466769 -0.020123 0.0
1.494147 0.019091 0.0
1.510050 0.065563 0.0
1.513148 0.112312 0.0
1.504973 0.154843 0.0
1.487871 0.190821 0.0
1.464045 0.219313 0.0
1.435250 0.240131 0.0
1.402792 0.253398 0.0
1.367624 0.259347 0.0
1.330457 0.258249 0.0
1.291858 0.250429 0.0
1.252336 0.236314 0.0
1.212446 0.216471 0.0
1.172885 0.191629 0.0
1.134550 0.162683 0.0
1.098447 0.130759 0.0
1.065286 0.097400 0.0
1.034786 0.064670 0.0
1.005171 0.034660 0.0
0.973585 0.008329 0.0
0.937857 -0.015490 0.0
0.899636 -0.039742 0.0
0.865171 -0.066430 0.0
0.841983 -0.095471 0.0
0.835305 -0.124206 0.0
0.846764 -0.148067 0.0
0.875387 -0.162481 0.0
0.919252 -0.163892 0.0
0.976274 -0.150097 0.0
1.044092 -0.120442 0.0
1.119521 -0.076180 0.0
1.195960 -0.022794 0.0
1.261931 0.030094 0.0
1.310312 0.074229 0.0
1.341917 0.107957 0.0
1.358962 0.131769 0.0
1.363455 0.146418 0.0
1.357287 0.152901 0.0
1.342258 0.152395 0.0
1.320094 0.146172 0.0
1.292430 0.135519 0.0
1.260788 0.121674 0.0
1.226536 0.105804 0.0
1.190826 0.089056 0.0
1.154492 0.072658 0.0
1.117937 0.058041 0.0
1.081121 0.046764 0.0
1.043738 0.039950 0.0
1.005621 0.037634 0.0
0.967286 0.038284 0.0
0.930246 0.039077 0.0
0.896845 0.036915 0.0
0.869675 0.029597 0.0
0.850850 0.016448 0.0
0.841440 -0.001822 0.0
0.841349 -0.023548 0.0
0.849682 -0.046270 0.0
0.865223 -0.067655 0.0
0.886794 -0.085972 0.0
0.913413 -0.100089 0.0
0.944300 -0.109323 0.0
0.978816 -0.113279 0.0
1.016361 -0.111756 0.0
1.056279 -0.104722 0.0
1.097745 -0.092389 0.0
1.139654 -0.075341 0.0
1.180521 -0.054680 0.0
1.218441 -0.032124 0.0
1.251061 -0.010019 0.0
1.276156 0.009295 0.0
1.293027 0.024242 0.0
1.302458 0.034416 0.0
1.305612 0.039845 0.0
1.303847 0.040769 0.0
1.298757 0.037703 0.0
1.292606 0.029833 0.0
1.000417 -0.014703 0.0
1.002123 -0.044555 0.0
1.005876 -0.076819 0.0
1.012668 -0.113639 0.0
1.024576 -0.157390 0.0
1.045558 -0.210532 0.0
1.082766 -0.274903 0.0
1.147338 -0.347211 0.0
1.265517 -0.441282 0.0
1.375279 -0.354214 0.0
1.412354 -0.256979 0.0
1.412340 -0.184245 0.0
1.399682 -0.128938 0.0
1.382172 -0.085029 0.0
1.361553 -0.050249 0.0
1.338369 -0.024584 0.0
1.312889 -0.007589 0.0
1.285490 0.000196 0.0
1.257490 -0.001860 0.0
1.231473 -0.014346 0.0
1.213567 -0.036690 0.0
1.211460 -0.059731 0.0
1.229740 -0.071552 0.0
1.268318 -0.060256 0.0
1.318354 -0.018190 0.0
1.361409 0.043888 0.0
1.387050 0.105248 0.0
1.397812 0.159318 0.0
1.397217 0.204044 0.0
1.387906 0.239227 0.0
1.371627 0.265291 0.0
1.349559 0.282765 0.0
1.322590 0.292118 0.0
1.291476 0.293758 0.0
1.256927 0.288069 0.0
1.219654 0.275470 0.0
1.180416 0.256443 0.0
1.140072 0.231562 0.0
1.099562 0.201594 0.0
1.059646 0.167868 0.0
1.020133 0.132966 0.0
0.978847 0.100891 0.0
0.931845 0.075056 0.0
0.876731 0.054632 0.0
0.817128 0.033537 0.0
0.762317 0.004264 0.0
0.722697 -0.036350 0.0
0.704499 -0.084166 0.0
0.706934 -0.131269 0.0
0.725561 -0.171090 0.0
0.756704 -0.199223 0.0
0.798465 -0.212778 0.0
0.850073 -0.209840 0.0
0.910980 -0.189424 0.0
0.980178 -0.151824 0.0
1.055699 -0.099111 0.0
1.132999 -0.036860 0.0
1.201869 0.023932 0.0
1.254216 0.074302 0.0
1.289938 0.112658 0.0
1.311048 0.139926 0.0
1.319422 0.157188 0.0
1.316864 0.165694 0.0
1.305106 0.166795 0.0
1.285791 0.161875 0.0
1.260440 0.152310 0.0
1.230401 0.139458 0.0
1.196774 0.124740 0.0
1.160316 0.109767 0.0
1.121401 0.096403 0.0
1.080145 0.086473 0.0
1.036760 0.081009 0.0
0.992055 0.079396 0.0
0.947823 0.079088 0.0
0.906762 0.076374 0.0
0.871878 0.067903 0.0
0.845645 0.052011 0.0
0.829397 0.029107 0.0
0.823184 0.001142 0.0
0.825984 -0.029222 0.0
0.836212 -0.059157 0.0
0.852318 -0.086415 0.0
0.873053 -0.109518 0.0
0.897492 -0.127601 0.0
0.924990 -0.140197 0.0
0.955114 -0.147045 0.0
0.987563 -0.147984 0.0
1.022069 -0.142918 0.0
1.058292 -0.131883 0.0
1.095717 -0.115180 0.0
1.133550 -0.093542 0.0
1.170649 -0.068281 0.0
1.205499 -0.041332 0.0
1.236216 -0.015203 0.0
1.260730 0.007355 0.0
1.278055 0.024547 0.0
1.288682 0.035932 0.0
1.293609 0.041519 0.0
1.294066 0.041585 0.0
1.291602 0.034567 0.0
0.999891 -0.015010 0.0
0.999447 -0.045510 0.0
0.998688 -0.078858 0.0
0.998176 -0.117881 0.0
0.999398 -0.166278 0.0
1.005936 -0.229164 0.0
1.026195 -0.313737 0.0
1.078919 -0.425674 0.0
1.226051 -0.628130 0.0
1.331086 -0.382163 0.0
1.293633 -0.228652 0.0
1.233174 -0.152099 0.0
1.184559 -0.099812 0.0
1.145401 -0.057488 0.0
1.109829 -0.021599 0.0
1.071212 0.008567 0.0
1.026586 0.029368 0.0
0.978142 0.039081 0.0
0.928975 0.036420 0.0
0.882742 0.019624 0.0
0.843268 -0.013281 0.0
0.820991 -0.058756 0.0
0.830404 -0.100221 0.0
0.875870 -0.115630 0.0
0.950886 -0.087867 0.0
1.038767 -0.017372 0.0
1.113557 0.066078 0.0
1.164920 0.136363 0.0
1.199378 0.193136 0.0
1.220804 0.238020 0.0
1.231157 0.272425 0.0
1.231590 0.297266 0.0
1.223050 0.313126 0.0
1.206489 0.320425 0.0
1.182894 0.319545 0.0
1.153268 0.310893 0.0
1.118581 0.294944 0.0
1.079625 0.272362 0.0
1.036548 0.244382 0.0
0.987936 0.213608 0.0
0.930339 0.184335 0.0
0.860615 0.160532 0.0
0.781490 0.141544 0.0
0.704580 0.120167 0.0
0.645114 0.087070 0.0
0.612626 0.038030 0.0
0.605999 -0.023870 0.0
0.616754 -0.089203 0.0
0.637017 -0.148930 0.0
0.663032 -0.198072 0.0
0.693788 -0.234139 0.0
0.729681 -0.255516 0.0
0.771732 -0.260761 0.0
0.820969 -0.248648 0.0
0.877864 -0.218693 0.0
0.941940 -0.171840 0.0
1.011539 -0.111029 0.0
1.082940 -0.042170 0.0
1.147465 0.023532 0.0
1.197722 0.077449 0.0
1.233091 0.118656 0.0
1.254955 0.148221 0.0
1.264783 0.167391 0.0
1.264084 0.177555 0.0
1.254338 0.180176 0.0
1.236942 0.176757 0.0
1.213134 0.168858 0.0
1.183916 0.158185 0.0
1.150001 0.146696 0.0
1.111863 0.136526 0.0
1.069996 0.129472 0.0
1.025337 0.126054 0.0
0.979676 0.124717 0.0
0.935720 0.121955 0.0
0.896640 0.113647 0.0
0.865254 0.096901 0.0
0.843301 0.071198 0.0
0.831203 0.038267 0.0
0.828291 0.001106 0.0
0.833214 -0.036909 0.0
0.844350 -0.072834 0.0
0.860185 -0.104678 0.0
0.879481 -0.131286 0.0
0.901310 -0.152102 0.0
0.925048 -0.166932 0.0
0.950351 -0.175737 0.0
0.977095 -0.178486 0.0
1.005282 -0.175109 0.0
1.034916 -0.165550 0.0
1.065883 -0.149904 0.0
1.097844 -0.128611 0.0
1.130164 -0.102630 0.0
1.161877 -0.073547 0.0
1.191713 -0.043540 0.0
1.218131 -0.015240 0.0
1.239420 0.008526 0.0
1.254722 0.026025 0.0
1.264361 0.036861 0.0
1.269081 0.041066 0.0
1.269749 0.036881 0.0
0.999293 -0.014194 0.0
0.996376 -0.042965 0.0
0.990291 -0.074557 0.0
0.980666 -0.112045 0.0
0.967204 -0.159874 0.0
0.950348 -0.225250 0.0
0.933605 -0.321167 0.0
0.932153 -0.469517 0.0
1.030308 -0.829574 0.0
1.036915 -0.188880 0.0
0.863758 -0.097801 0.0
0.732760 -0.081451 0.0
0.665198 -0.054282 0.0
0.617764 -0.016426 0.0
0.564671 0.026005 0.0
0.502200 0.062050 0.0
0.436340 0.086372 0.0
0.371911 0.094948 0.0
0.316732 0.084899 0.0
0.280965 0.053146 0.0
0.275098 -0.001462 0.0
0.302775 -0.075976 0.0
0.359438 -0.149076 0.0
0.439112 -0.191914 0.0
0.536414 -0.183901 0.0
0.648226 -0.121033 0.0
0.765336 -0.022161 0.0
0.865067 0.073507 0.0
0.939286 0.147314 0.0
0.995868 0.205833 0.0
1.037561 0.252565 0.0
1.065375 0.288880 0.0
1.080105 0.315321 0.0
1.082702 0.332195 0.0
1.074249 0.339824 0.0
1.055832 0.338657 0.0
1.028309 0.329390 0.0
0.991862 0.313320 0.0
0.945345 0.293018 0.0
0.886367 0.272561 0.0
0.813915 0.255431 0.0
0.733114 0.239961 0.0
0.656846 0.217507 0.0
0.599915 0.178044 0.0
0.570342 0.118233 0.0
0.566322 0.043375 0.0
0.579830 -0.036096 0.0
0.602166 -0.110069 0.0
0.627671 -0.173831 0.0
0.653927 -0.225441 0.0
0.680492 -0.264091 0.0
0.708200 -0.289164 0.0
0.738737 -0.299700 0.0
0.774138 -0.294346 0.0
0.816118 -0.271870 0.0
0.865448 -0.232068 0.0
0.921625 -0.176577 0.0
0.982848 -0.109246 0.0
1.045477 -0.036546 0.0
1.102034 0.030712 0.0
1.146594 0.085464 0.0
1.178545 0.127598 0.0
1.198611 0.158119 0.0
1.207813 0.178325 0.0
1.207285 0.189680 0.0
1.198163 0.193772 0.0
1.181484 0.192331 0.0
1.158111 0.187302 0.0
1.128734 0.180871 0.0
1.094013 0.175211 0.0
1.054899 0.171769 0.0
1.013024 0.170291 0.0
0.970883 0.168283 0.0
0.931574 0.161654 0.0
0.898112 0.146491 0.0
0.872665 0.120891 0.0
0.856170 0.085654 0.0
0.848452 0.043627 0.0
0.848614 -0.001503 0.0
0.855340 -0.045948 0.0
0.867143 -0.086735 0.0
0.882596 -0.122067 0.0
0.900460 -0.151057 0.0
0.919757 -0.173456 0.0
0.939829 -0.189387 0.0
0.960349 -0.199106 0.0
0.981300 -0.202813 0.0
1.002887 -0.200556 0.0
1.025405 -0.192255 0.0
1.049084 -0.177846 0.0
1.073959 -0.157505 0.0
1.099775 -0.131872 0.0
1.125960 -0.102204 0.0
1.151640 -0.070399 0.0
1.175702 -0.038861 0.0
1.196844 -0.010284 0.0
1.213723 0.012656 0.0
1.225704 0.028609 0.0
1.232990 0.037313 0.0
1.235859 0.037098 0.0
0.998729 -0.012216 0.0
0.993479 -0.036777 0.0
0.982303 -0.063484 0.0
0.963712 -0.094901 0.0
0.934951 -0.134795 0.0
0.890961 -0.189483 0.0
0.821819 -0.271047 0.0
0.708303 -0.404669 0.0
0.318652 -0.706409 0.0
-0.475025 0.244829 0.0
-0.475025 0.000000 0.0
-0.027933 -0.019106 0.0
-0.046720 -0.039104 0.0
-0.017994 -0.012895 0.0
0.023777 0.033797 0.0
0.048629 0.091877 0.0
0.040133 0.130902 0.0
0.013235 0.141745 0.0
-0.015396 0.121913 0.0
-0.033102 0.069605 0.0
-0.031468 -0.013688 0.0
-0.006606 -0.116289 0.0
0.041364 -0.213396 0.0
0.111684 -0.277589 0.0
0.202136 -0.285980 0.0
0.308597 -0.237227 0.0
0.429981 -0.144460 0.0
0.558690 -0.032633 0.0
0.671755 0.066170 0.0
0.759463 0.142687 0.0
0.828452 0.205029 0.0
0.880809 0.256245 0.0
0.917187 0.296848 0.0
0.938313 0.326944 0.0
0.945055 0.346787 0.0
0.938175 0.356991 0.0
0.917961 0.358792 0.0
0.883833 0.354491 0.0
0.834668 0.347529 0.0
0.771021 0.340676 0.0
0.698835 0.331953 0.0
0.630617 0.312458 0.0
0.580421 0.271473 0.0
0.556081 0.205350 0.0
0.556263 0.120319 0.0
0.573966 0.027606 0.0
0.600692 -0.060561 0.0
0.629866 -0.137115 0.0
0.658034 -0.200459 0.0
0.683517 -0.250553 0.0
0.705877 -0.287904 0.0
0.725796 -0.312978 0.0
0.745031 -0.325659 0.0
0.766176 -0.324932 0.0
0.792053 -0.309141 0.0
0.824839 -0.276914 0.0
0.865321 -0.228391 0.0
0.912674 -0.166008 0.0
0.964710 -0.094450 0.0
1.017519 -0.020750 0.0
1.064787 0.045098 0.0
1.102165 0.098634 0.0
1.129100 0.140083 0.0
1.145858 0.170401 0.0
1.153069 0.190921 0.0
1.151490 0.203231 0.0
1.141878 0.209162 0.0
1.124925 0.210796 0.0
1.101309 0.210370 0.0
1.071903 0.209840 0.0
1.038091 0.210065 0.0
1.002019 0.209942 0.0
0.966515 0.206277 0.0
0.934586 0.194897 0.0
0.908696 0.172599 0.0
0.890259 0.138667 0.0
0.879604 0.095029 0.0
0.876304 0.045271 0.0
0.879531 -0.006535 0.0
0.888119 -0.056231 0.0
0.900684 -0.100820 0.0
0.915861 -0.138612 0.0
0.932412 -0.168926 0.0
0.949323 -0.191797 0.0
0.965893 -0.207689 0.0
0.981785 -0.217217 0.0
0.997037 -0.220904 0.0
1.011999 -0.219014 0.0
1.027212 -0.211527 0.0
1.043227 -0.198268 0.0
1.060428 -0.179159 0.0
1.078910 -0.154516 0.0
1.098425 -0.125260 0.0
1.118400 -0.092999 0.0
1.138007 -0.059930 0.0
1.156245 -0.028596 0.0
1.171964 -0.001629 0.0
1.184148 0.018728 0.0
1.192364 0.031691 0.0
1.196440 0.035774 0.0
0.998324 -0.009269 0.0
0.991415 -0.027564 0.0
0.976677 -0.046785 0.0
0.951966 -0.068299 0.0
0.913152 -0.093823 0.0
0.852229 -0.125543 0.0
0.752369 -0.165986 0.0
0.573774 -0.217619 0.0
0.228861 -0.258140 0.0
0.000000 0.244829 0.0
-0.000000 -0.000000 0.0
0.000000 0.000000 0.0
-0.024264 -0.024125 0.0
-0.056294 -0.024710 0.0
-0.071413 0.018958 0.0
-0.091179 0.101630 0.0
-0.121459 0.159923 0.0
-0.158229 0.176391 0.0
-0.191914 0.149583 0.0
-0.212561 0.080287 0.0
-0.212361 -0.026205 0.0
-0.190644 -0.150350 0.0
-0.152947 -0.265001 0.0
-0.101655 -0.347595 0.0
-0.030544 -0.377538 0.0
0.062621 -0.345296 0.0
0.172647 -0.267802 0.0
0.297247 -0.162599 0.0
0.427699 -0.047380 0.0
0.542448 0.053781 0.0
0.632233 0.135161 0.0
0.702538 0.203450 0.0
0.755265 0.260539 0.0
0.790918 0.306472 0.0
0.809898 0.341536 0.0
0.812366 0.366654 0.0
0.798088 0.383622 0.0
0.766846 0.395031 0.0
0.720130 0.402870 0.0
0.663842 0.405270 0.0
0.609326 0.394062 0.0
0.569662 0.358233 0.0
0.552997 0.292559 0.0
0.559214 0.202388 0.0
0.582544 0.099769 0.0
0.615549 -0.002552 0.0
0.651256 -0.092836 0.0
0.685154 -0.167912 0.0
0.715128 -0.227804 0.0
0.739938 -0.273501 0.0
0.759064 -0.306441 0.0
0.772810 -0.328106 0.0
0.782522 -0.339478 0.0
0.790710 -0.340446 0.0
0.800784 -0.329578 0.0
0.816225 -0.304704 0.0
0.839457 -0.264316 0.0
0.871047 -0.209024 0.0
0.909681 -0.142103 0.0
0.952717 -0.068942 0.0
0.995771 0.002968 0.0
1.033746 0.065411 0.0
1.063805 0.116312 0.0
1.085285 0.155933 0.0
1.098177 0.185286 0.0
1.102782 0.205840 0.0
1.099529 0.219418 0.0
1.088929 0.228094 0.0
1.071662 0.233954 0.0
1.048806 0.238518 0.0
1.022076 0.241928 0.0
0.993883 0.242344 0.0
0.967022 0.236240 0.0
0.944059 0.219825 0.0
0.926753 0.190867 0.0
0.915850 0.149739 0.0
0.911318 0.099144 0.0
0.912701 0.043072 0.0
0.919252 -0.014114 0.0
0.929888 -0.067876 0.0
0.943305 -0.115156 0.0
0.958184 -0.154333 0.0
0.973331 -0.184901 0.0
0.987761 -0.207161 0.0
1.000782 -0.221915 0.0
1.012064 -0.230164 0.0
1.021671 -0.232815 0.0
1.030050 -0.230443 0.0
1.037925 -0.223186 0.0
1.046126 -0.210824 0.0
1.055374 -0.193052 0.0
1.066106 -0.169837 0.0
1.078386 -0.141732 0.0
1.091905 -0.110020 0.0
1.106052 -0.076662 0.0
1.120011 -0.044061 0.0
1.132858 -0.014729 0.0
1.143577 0.008924 0.0
1.151400 0.025457 0.0
1.155820 0.033512 0.0
0.998158 -0.005752 0.0
0.990601 -0.016614 0.0
0.974610 -0.027006 0.0
0.948172 -0.036928 0.0
0.907718 -0.045925 0.0
0.847335 -0.052135 0.0
0.758177 -0.050374 0.0
0.629272 -0.025731 0.0
0.465897 0.062496 0.0
0.189179 0.170571 0.0
0.000000 0.000000 0.0
-0.000000 -0.000000 0.0
0.000000 0.000000 0.0
-0.008939 -0.008472 0.0
-0.038378 0.046810 0.0
-0.091208 0.146376 0.0
-0.151396 0.205646 0.0
-0.201389 0.217431 0.0
-0.237761 0.178600 0.0
-0.254435 0.088592 0.0
-0.245593 -0.043552 0.0
-0.217671 -0.182642 0.0
-0.184067 -0.304009 0.0
-0.150096 -0.393851 0.0
-0.111846 -0.440644 0.0
-0.055677 -0.431524 0.0
0.025216 -0.372493 0.0
0.125948 -0.283240 0.0
0.240692 -0.171935 0.0
0.358862 -0.054583 0.0
0.462821 0.049782 0.0
0.544484 0.136861 0.0
0.607345 0.211541 0.0
0.652428 0.274734 0.0
0.679770 0.326952 0.0
0.689226 0.369314 0.0
0.681009 0.403457 0.0
0.656924 0.430523 0.0
0.622220 0.448797 0.0
0.586480 0.451371 0.0
0.561248 0.427708 0.0
0.554797 0.370701 0.0
0.568523 0.283029 0.0
0.598327 0.175896 0.0
0.638446 0.062812 0.0
0.682038 -0.042191 0.0
0.723421 -0.130285 0.0
0.760058 -0.200998 0.0
0.790571 -0.255205 0.0
0.814132 -0.294471 0.0
0.830342 -0.320806 0.0
0.839272 -0.336419 0.0
0.841700 -0.343305 0.0
0.839475 -0.342581 0.0
0.835747 -0.333789 0.0
0.834618 -0.314804 0.0
0.840031 -0.282861 0.0
0.854403 -0.236440 0.0
0.877852 -0.176771 0.0
0.908469 -0.107927 0.0
0.943120 -0.035752 0.0
0.977303 0.031973 0.0
1.007013 0.089980 0.0
1.030437 0.137361 0.0
1.046848 0.174555 0.0
1.056052 0.202762 0.0
1.058149 0.223651 0.0
1.053488 0.239123 0.0
1.042770 0.250910 0.0
1.027239 0.259950 0.0
1.008789 0.265676 0.0