# vtk DataFile Version 3.0
Vector Field
ASCII
DATASET RECTILINEAR_GRID
DIMENSIONS 100 26 1
X_COORDINATES 100 double
0.050000 0.150000 0.250000 0.350000 0.450000 0.550000 0.650000 0.750000 0.850000 0.950000 1.050000 1.150000 1.250000 1.350000 1.450000 1.550000 1.650000 1.750000 1.850000 1.950000 2.050000 2.150000 2.250000 2.350000 2.450000 2.550000 2.650000 2.750000 2.850000 2.950000 3.050000 3.150000 3.250000 3.350000 3.450000 3.550000 3.650000 3.750000 3.850000 3.950000 4.050000 4.150000 4.250000 4.350000 4.450000 4.550000 4.650000 4.750000 4.850000 4.950000 5.050000 5.150000 5.250000 5.350000 5.450000 5.550000 5.650000 5.750000 5.850000 5.950000 6.050000 6.150000 6.250000 6.350000 6.450000 6.550000 6.650000 6.750000 6.850000 6.950000 7.050000 7.150000 7.250000 7.350000 7.450000 7.550000 7.650000 7.750000 7.850000 7.950000 8.050000 8.150000 8.250000 8.350000 8.450000 8.550000 8.650000 8.750000 8.850000 8.950000 9.050000 9.150000 9.250000 9.350000 9.450000 9.550000 9.650000 9.750000 9.850000 9.950000 
Y_COORDINATES 26 double
0.050000 0.150000 0.250000 0.350000 0.450000 0.550000 0.650000 0.750000 0.850000 0.950000 1.050000 1.150000 1.250000 1.350000 1.450000 1.550000 1.650000 1.750000 1.850000 1.950000 2.050000 2.150000 2.250000 2.350000 2.450000 2.550000 
Z_COORDINATES 1 double
0.0
POINT_DATA 2600
VECTORS Vektorfeld double
0.997786 0.002214 0.0
0.993491 0.002082 0.0
0.991024 0.000385 0.0
0.992590 -0.001951 0.0
0.999045 -0.004504 0.0
1.010527 -0.006978 0.0
1.026598 -0.009092 0.0
1.046245 -0.010555 0.0
1.067907 -0.011108 0.0
1.089605 -0.010590 0.0
1.109210 -0.009014 0.0
1.124781 -0.006557 0.0
1.134840 -0.003502 0.0
1.138584 -0.000242 0.0
1.135874 0.002951 0.0
1.126913 0.006010 0.0
1.112116 0.008787 0.0
1.092173 0.011156 0.0
1.068004 0.013013 0.0
1.040708 0.014283 0.0
1.011501 0.014924 0.0
0.981644 0.014932 0.0
0.952365 0.014347 0.0
0.924766 0.013252 0.0
0.899738 0.011776 0.0
0.877870 0.010091 0.0
0.859376 0.008403 0.0
0.844032 0.006942 0.0
0.831147 0.005944 0.0
0.819590 0.005613 0.0
0.807904 0.006073 0.0
0.794494 0.007337 0.0
0.777865 0.009292 0.0
0.756833 0.011739 0.0
0.730664 0.014430 0.0
0.699126 0.017108 0.0
0.662480 0.019537 0.0
0.621433 0.021510 0.0
0.577078 0.022846 0.0
0.530844 0.023388 0.0
0.484468 0.022989 0.0
0.439984 0.021495 0.0
0.399825 0.018663 0.0
0.367058 0.014104 0.0
0.345301 0.007652 0.0
0.337126 0.000523 0.0
0.340711 -0.004109 0.0
0.350958 -0.006138 0.0
0.364088 -0.006992 0.0
0.378264 -0.007184 0.0
0.392409 -0.006961 0.0
0.405840 -0.006470 0.0
0.418134 -0.005824 0.0
0.429069 -0.005112 0.0
0.438582 -0.004401 0.0
0.446722 -0.003739 0.0
0.453617 -0.003156 0.0
0.459439 -0.002666 0.0
0.464376 -0.002272 0.0
0.468615 -0.001967 0.0
0.472322 -0.001739 0.0
0.475634 -0.001573 0.0
0.478660 -0.001452 0.0
0.481473 -0.001361 0.0
0.484121 -0.001287 0.0
0.486627 -0.001219 0.0
0.488998 -0.001151 0.0
0.491228 -0.001079 0.0
0.493308 -0.001001 0.0
0.495225 -0.000917 0.0
0.496971 -0.000829 0.0
0.498540 -0.000740 0.0
0.499932 -0.000652 0.0
0.501151 -0.000567 0.0
0.502207 -0.000488 0.0
0.503110 -0.000416 0.0
0.503876 -0.000350 0.0
0.504519 -0.000293 0.0
0.505055 -0.000243 0.0
0.505499 -0.000201 0.0
0.505865 -0.000165 0.0
0.506167 -0.000136 0.0
0.506416 -0.000113 0.0
0.506624 -0.000095 0.0
0.506800 -0.000082 0.0
0.506954 -0.000073 0.0
0.507095 -0.000068 0.0
0.507230 -0.000067 0.0
0.507369 -0.000071 0.0
0.507519 -0.000080 0.0
0.507692 -0.000093 0.0
0.507899 -0.000113 0.0
0.508153 -0.000141 0.0
0.508473 -0.000179 0.0
0.508882 -0.000230 0.0
0.509409 -0.000298 0.0
0.510097 -0.000390 0.0
0.510998 -0.000511 0.0
0.512177 -0.000668 0.0
0.513652 -0.000807 0.0
1.003081 0.001347 0.0
1.012079 -0.001754 0.0
1.026195 -0.007429 0.0
1.044815 -0.014324 0.0
1.067867 -0.021637 0.0
1.095212 -0.028672 0.0
1.126416 -0.034673 0.0
1.160607 -0.038812 0.0
1.196412 -0.040317 0.0
1.232008 -0.038674 0.0
1.265400 -0.033928 0.0
1.294821 -0.026637 0.0
1.318966 -0.017625 0.0
1.336902 -0.007799 0.0
1.348022 0.002097 0.0
1.352256 0.011591 0.0
1.350044 0.020214 0.0
1.342134 0.027582 0.0
1.329508 0.033383 0.0
1.313323 0.037394 0.0
1.294852 0.039491 0.0
1.275412 0.039663 0.0
1.256277 0.038031 0.0
1.238591 0.034852 0.0
1.223280 0.030516 0.0
1.210957 0.025541 0.0
1.201856 0.020548 0.0
1.195761 0.016235 0.0
1.191981 0.013316 0.0
1.189362 0.012416 0.0
1.186390 0.013927 0.0
1.181398 0.017885 0.0
1.172821 0.023950 0.0
1.159430 0.031505 0.0
1.140467 0.039796 0.0
1.115690 0.048057 0.0
1.085344 0.055580 0.0
1.050114 0.061744 0.0
1.011062 0.066018 0.0
0.969578 0.067933 0.0
0.927329 0.067069 0.0
0.886214 0.063014 0.0
0.848197 0.055319 0.0
0.814751 0.043662 0.0
0.785847 0.028755 0.0
0.760020 0.013423 0.0
0.738148 0.001278 0.0
0.723878 -0.007502 0.0
0.718296 -0.013176 0.0
0.719392 -0.016272 0.0
0.724970 -0.017596 0.0
0.733371 -0.017667 0.0
0.743356 -0.016905 0.0
0.754030 -0.015640 0.0
0.764767 -0.014122 0.0
0.775152 -0.012542 0.0
0.784943 -0.011038 0.0
0.794039 -0.009701 0.0
0.802443 -0.008579 0.0
0.810233 -0.007689 0.0
0.817529 -0.007020 0.0
0.824467 -0.006543 0.0
0.831174 -0.006216 0.0
0.837756 -0.005993 0.0
0.844281 -0.005829 0.0
0.850784 -0.005686 0.0
0.857263 -0.005533 0.0
0.863686 -0.005351 0.0
0.870005 -0.005127 0.0
0.876158 -0.004860 0.0
0.882082 -0.004555 0.0
0.887717 -0.004219 0.0
0.893016 -0.003864 0.0
0.897942 -0.003501 0.0
0.902471 -0.003140 0.0
0.906594 -0.002791 0.0
0.910314 -0.002460 0.0
0.913642 -0.002154 0.0
0.916598 -0.001874 0.0
0.919207 -0.001623 0.0
0.921498 -0.001400 0.0
0.923499 -0.001205 0.0
0.925242 -0.001036 0.0
0.926756 -0.000893 0.0
0.928067 -0.000772 0.0
0.929203 -0.000672 0.0
0.930186 -0.000592 0.0
0.931039 -0.000531 0.0
0.931780 -0.000488 0.0
0.932429 -0.000462 0.0
0.933001 -0.000455 0.0
0.933512 -0.000468 0.0
0.933976 -0.000504 0.0
0.934406 -0.000566 0.0
0.934816 -0.000662 0.0
0.935222 -0.000799 0.0
0.935640 -0.000994 0.0
0.936097 -0.001265 0.0
0.936659 -0.001655 0.0
0.937399 -0.002035 0.0
1.001990 -0.003724 0.0
1.009160 -0.012851 0.0
1.022313 -0.023600 0.0
1.040949 -0.035410 0.0
1.064955 -0.047609 0.0
1.094241 -0.059332 0.0
1.128461 -0.069438 0.0
1.166748 -0.076525 0.0
1.207507 -0.079169 0.0
1.248342 -0.076253 0.0
1.286518 -0.067916 0.0
1.319781 -0.055332 0.0
1.346722 -0.040015 0.0
1.366717 -0.023339 0.0
1.379696 -0.006462 0.0
1.385964 0.009648 0.0
1.386080 0.024253 0.0
1.380790 0.036743 0.0
1.371017 0.046622 0.0
1.357831 0.053527 0.0
1.342405 0.057255 0.0
1.325959 0.057785 0.0
1.309696 0.055306 0.0
1.294736 0.050222 0.0
1.282047 0.043147 0.0
1.272384 0.034895 0.0
1.266238 0.026443 0.0
1.263767 0.018906 0.0
1.264710 0.013481 0.0
1.268288 0.011293 0.0
1.273191 0.013118 0.0
1.277767 0.019110 0.0
1.280336 0.028733 0.0
1.279502 0.040948 0.0
1.274311 0.054507 0.0
1.264276 0.068159 0.0
1.249333 0.080767 0.0
1.229778 0.091343 0.0
1.206203 0.099046 0.0
1.179436 0.103158 0.0
1.150462 0.103067 0.0
1.120309 0.098284 0.0
1.089821 0.088553 0.0
1.059431 0.074264 0.0
1.029365 0.057123 0.0
1.000413 0.039833 0.0
0.973454 0.023698 0.0
0.948431 0.009371 0.0
0.926038 -0.002074 0.0
0.908145 -0.010577 0.0
0.895507 -0.016232 0.0
0.887519 -0.019444 0.0
0.883220 -0.020815 0.0
0.881694 -0.020878 0.0
0.882136 -0.020063 0.0
0.883889 -0.018740 0.0
0.886466 -0.017209 0.0
0.889538 -0.015699 0.0
0.892922 -0.014368 0.0
0.896544 -0.013312 0.0
0.900416 -0.012565 0.0
0.904593 -0.012112 0.0
0.909142 -0.011903 0.0
0.914118 -0.011864 0.0
0.919548 -0.011914 0.0
0.925420 -0.011976 0.0
0.931684 -0.011986 0.0
0.938258 -0.011897 0.0
0.945040 -0.011682 0.0
0.951916 -0.011334 0.0
0.958772 -0.010860 0.0
0.965499 -0.010277 0.0
0.972006 -0.009611 0.0
0.978214 -0.008888 0.0
0.984067 -0.008135 0.0
0.989524 -0.007376 0.0
0.994562 -0.006633 0.0
0.999173 -0.005920 0.0
1.003359 -0.005250 0.0
1.007134 -0.004631 0.0
1.010517 -0.004066 0.0
1.013533 -0.003557 0.0
1.016209 -0.003104 0.0
1.018575 -0.002704 0.0
1.020659 -0.002356 0.0
1.022489 -0.002054 0.0
1.024094 -0.001798 0.0
1.025498 -0.001582 0.0
1.026725 -0.001405 0.0
1.027796 -0.001265 0.0
1.028731 -0.001160 0.0
1.029548 -0.001091 0.0
1.030263 -0.001059 0.0
1.030888 -0.001067 0.0
1.031437 -0.001120 0.0
1.031917 -0.001227 0.0
1.032336 -0.001403 0.0
1.032691 -0.001669 0.0
1.032956 -0.002077 0.0
1.033122 -0.002518 0.0
1.001614 -0.007328 0.0
1.007905 -0.022708 0.0
1.020231 -0.039220 0.0
1.038563 -0.056757 0.0
1.063121 -0.074825 0.0
1.094186 -0.092467 0.0
1.131792 -0.108130 0.0
1.175281 -0.119609 0.0
1.222892 -0.124455 0.0
1.271104 -0.120013 0.0
1.315558 -0.106786 0.0
1.353132 -0.087300 0.0
1.382397 -0.064254 0.0
1.403068 -0.039766 0.0
1.415462 -0.015408 0.0
1.420217 0.007571 0.0
1.418163 0.028268 0.0
1.410262 0.045920 0.0
1.397608 0.059872 0.0
1.381436 0.069635 0.0
1.363079 0.074929 0.0
1.343913 0.075722 0.0
1.325291 0.072254 0.0
1.308482 0.065044 0.0
1.294611 0.054886 0.0
1.284610 0.042820 0.0
1.279178 0.030097 0.0
1.278723 0.018179 0.0
1.283196 0.008791 0.0
1.291827 0.003775 0.0
1.303005 0.004556 0.0
1.314564 0.011538 0.0
1.324396 0.023904 0.0
1.330965 0.040041 0.0
1.333436 0.058133 0.0
1.331529 0.076474 0.0
1.325334 0.093590 0.0
1.315146 0.108263 0.0
1.301359 0.119488 0.0
1.284399 0.126443 0.0
1.264675 0.128479 0.0
1.242520 0.125181 0.0
1.218129 0.116535 0.0
1.191598 0.103203 0.0
1.163172 0.086676 0.0
1.133530 0.068874 0.0
1.103722 0.051423 0.0
1.074917 0.035474 0.0
1.047855 0.021278 0.0
1.022659 0.009161 0.0
0.999758 -0.000432 0.0
0.980047 -0.007543 0.0
0.964007 -0.012377 0.0
0.951460 -0.015243 0.0
0.941892 -0.016572 0.0
0.934749 -0.016841 0.0
0.929549 -0.016485 0.0
0.925916 -0.015863 0.0
0.923590 -0.015260 0.0
0.922419 -0.014871 0.0
0.922334 -0.014794 0.0
0.923316 -0.015042 0.0
0.925354 -0.015561 0.0
0.928425 -0.016253 0.0
0.932470 -0.017000 0.0
0.937392 -0.017684 0.0
0.943059 -0.018208 0.0
0.949312 -0.018501 0.0
0.955979 -0.018526 0.0
0.962887 -0.018274 0.0
0.969874 -0.017763 0.0
0.976798 -0.017026 0.0
0.983537 -0.016108 0.0
0.989998 -0.015059 0.0
0.996108 -0.013926 0.0
1.001820 -0.012754 0.0
1.007106 -0.011579 0.0
1.011955 -0.010432 0.0
1.016366 -0.009336 0.0
1.020354 -0.008307 0.0
1.023937 -0.007355 0.0
1.027139 -0.006486 0.0
1.029988 -0.005700 0.0
1.032514 -0.004998 0.0
1.034744 -0.004376 0.0
1.036707 -0.003829 0.0
1.038432 -0.003353 0.0
1.039943 -0.002942 0.0
1.041264 -0.002593 0.0
1.042417 -0.002301 0.0
1.043420 -0.002063 0.0
1.044292 -0.001877 0.0
1.045047 -0.001742 0.0
1.045698 -0.001659 0.0
1.046253 -0.001631 0.0
1.046720 -0.001663 0.0
1.047098 -0.001763 0.0
1.047378 -0.001944 0.0
1.047531 -0.002220 0.0
1.047534 -0.002543 0.0
1.001426 -0.010368 0.0
1.007147 -0.031681 0.0
1.018729 -0.054156 0.0
1.036593 -0.078017 0.0
1.061486 -0.103016 0.0
1.094366 -0.128222 0.0
1.136085 -0.151700 0.0
1.186661 -0.170104 0.0
1.244680 -0.179590 0.0
1.304295 -0.172705 0.0
1.357464 -0.151716 0.0
1.399968 -0.122448 0.0
1.431116 -0.089519 0.0
1.451642 -0.055698 0.0
1.462497 -0.022725 0.0
1.464671 0.007960 0.0
1.459182 0.035422 0.0
1.447088 0.058760 0.0
1.429643 0.077130 0.0
1.408305 0.089886 0.0
1.384679 0.096662 0.0
1.360427 0.097408 0.0
1.337197 0.092421 0.0
1.316537 0.082345 0.0
1.299829 0.068164 0.0
1.288222 0.051148 0.0
1.282632 0.032791 0.0
1.283772 0.014800 0.0
1.291919 -0.000450 0.0
1.306204 -0.009901 0.0
1.324259 -0.011002 0.0
1.342728 -0.002932 0.0
1.358438 0.012833 0.0
1.369495 0.033485 0.0
1.375347 0.056366 0.0
1.376230 0.079265 0.0
1.372748 0.100477 0.0
1.365570 0.118742 0.0
1.355250 0.133117 0.0
1.342150 0.142875 0.0
1.326439 0.147482 0.0
1.308117 0.146655 0.0
1.287076 0.140494 0.0
1.263221 0.129630 0.0
1.236669 0.115227 0.0
1.207893 0.098742 0.0
1.177696 0.081560 0.0
1.147051 0.064787 0.0
1.116902 0.049176 0.0
1.088087 0.035273 0.0
1.061218 0.023225 0.0
1.036575 0.013155 0.0
1.014350 0.005190 0.0
0.994818 -0.000731 0.0
0.978176 -0.004873 0.0
0.964384 -0.007605 0.0
0.953204 -0.009342 0.0
0.944339 -0.010508 0.0
0.937544 -0.011494 0.0
0.932662 -0.012584 0.0
0.929594 -0.013930 0.0
0.928274 -0.015566 0.0
0.928626 -0.017426 0.0
0.930547 -0.019379 0.0
0.933890 -0.021263 0.0
0.938467 -0.022920 0.0
0.944051 -0.024223 0.0
0.950399 -0.025087 0.0
0.957267 -0.025475 0.0
0.964426 -0.025392 0.0
0.971672 -0.024878 0.0
0.978832 -0.023994 0.0
0.985770 -0.022817 0.0
0.992383 -0.021424 0.0
0.998600 -0.019889 0.0
1.004376 -0.018280 0.0
1.009690 -0.016652 0.0
1.014535 -0.015053 0.0
1.018922 -0.013515 0.0
1.022869 -0.012063 0.0
1.026400 -0.010713 0.0
1.029544 -0.009475 0.0
1.032334 -0.008350 0.0
1.034799 -0.007339 0.0
1.036971 -0.006437 0.0
1.038879 -0.005639 0.0
1.040551 -0.004939 0.0
1.042013 -0.004329 0.0
1.043288 -0.003803 0.0
1.044397 -0.003353 0.0
1.045359 -0.002976 0.0
1.046189 -0.002666 0.0
1.046901 -0.002420 0.0
1.047507 -0.002237 0.0
1.048013 -0.002116 0.0
1.048425 -0.002057 0.0
1.048741 -0.002064 0.0
1.048954 -0.002137 0.0
1.049047 -0.002274 0.0
1.049005 -0.002450 0.0
1.001237 -0.013031 0.0
1.006270 -0.039771 0.0
1.016702 -0.068080 0.0
1.033353 -0.098608 0.0
1.057605 -0.131569 0.0
1.091427 -0.166371 0.0
1.137150 -0.200993 0.0
1.196447 -0.230683 0.0
1.270252 -0.250835 0.0
1.346951 -0.237774 0.0
1.409770 -0.202634 0.0
1.454841 -0.159106 0.0
1.484891 -0.114060 0.0
1.503071 -0.069863 0.0
1.511139 -0.027484 0.0
1.510033 0.011651 0.0
1.500510 0.046743 0.0
1.483461 0.076583 0.0
1.460220 0.099993 0.0
1.432488 0.116093 0.0
1.402182 0.124387 0.0
1.371318 0.124798 0.0
1.341901 0.117678 0.0
1.315825 0.103823 0.0
1.294767 0.084453 0.0
1.280090 0.061142 0.0
1.272838 0.035641 0.0
1.273898 0.009750 0.0
1.283918 -0.013567 0.0
1.302472 -0.029623 0.0
1.327241 -0.034104 0.0
1.353986 -0.025043 0.0
1.377455 -0.004235 0.0
1.393888 0.023063 0.0
1.402656 0.052168 0.0
1.404915 0.080323 0.0
1.402090 0.105726 0.0
1.395438 0.127321 0.0
1.385833 0.144462 0.0
1.373753 0.156710 0.0
1.359346 0.163766 0.0
1.342525 0.165513 0.0
1.323088 0.162114 0.0
1.300861 0.154092 0.0
1.275847 0.142331 0.0
1.248327 0.127934 0.0
1.218864 0.112028 0.0
1.188211 0.095617 0.0
1.157201 0.079506 0.0
1.126649 0.064310 0.0
1.097264 0.050442 0.0
1.069624 0.038221 0.0
1.044171 0.027803 0.0
1.021165 0.019194 0.0
1.000706 0.012303 0.0
0.982807 0.006910 0.0
0.967465 0.002664 0.0
0.954685 -0.000869 0.0
0.944449 -0.004103 0.0
0.936705 -0.007348 0.0
0.931385 -0.010780 0.0
0.928415 -0.014425 0.0
0.927682 -0.018185 0.0
0.929018 -0.021877 0.0
0.932193 -0.025283 0.0
0.936917 -0.028201 0.0
0.942867 -0.030476 0.0
0.949706 -0.032022 0.0
0.957112 -0.032815 0.0
0.964796 -0.032894 0.0
0.972512 -0.032337 0.0
0.980065 -0.031248 0.0
0.987307 -0.029744 0.0
0.994135 -0.027939 0.0
1.000484 -0.025940 0.0
1.006321 -0.023841 0.0
1.011635 -0.021719 0.0
1.016436 -0.019633 0.0
1.020744 -0.017629 0.0
1.024588 -0.015739 0.0
1.028003 -0.013983 0.0
1.031024 -0.012371 0.0
1.033688 -0.010907 0.0
1.036031 -0.009589 0.0
1.038085 -0.008413 0.0
1.039883 -0.007369 0.0
1.041452 -0.006450 0.0
1.042818 -0.005646 0.0
1.044005 -0.004947 0.0
1.045033 -0.004345 0.0
1.045920 -0.003832 0.0
1.046679 -0.003400 0.0
1.047325 -0.003044 0.0
1.047866 -0.002760 0.0
1.048309 -0.002543 0.0
1.048658 -0.002391 0.0
1.048913 -0.002301 0.0
1.049069 -0.002268 0.0
1.049119 -0.002285 0.0
1.049054 -0.002332 0.0
1.000962 -0.015230 0.0
1.004917 -0.046561 0.0
1.013309 -0.080114 0.0
1.027243 -0.117160 0.0
1.048706 -0.158733 0.0
1.080896 -0.205218 0.0
1.128472 -0.255446 0.0
1.196626 -0.303682 0.0
1.294224 -0.349240 0.0
1.393754 -0.315599 0.0
1.459420 -0.253294 0.0
1.496460 -0.190557 0.0
1.517155 -0.133353 0.0
1.528710 -0.080306 0.0
1.532997 -0.029397 0.0
1.529158 0.018509 0.0
1.516387 0.062179 0.0
1.495010 0.099573 0.0
1.466341 0.128913 0.0
1.432276 0.148971 0.0
1.395012 0.159080 0.0
1.356879 0.159103 0.0
1.320225 0.149444 0.0
1.287288 0.131070 0.0
1.260028 0.105524 0.0
1.239925 0.074850 0.0
1.227763 0.041347 0.0
1.223628 0.007118 0.0
1.228185 -0.025512 0.0
1.242590 -0.050637 0.0
1.266727 -0.061998 0.0
1.298388 -0.055555 0.0
1.332417 -0.031221 0.0
1.360889 0.005144 0.0
1.378956 0.043251 0.0
1.387733 0.078202 0.0
1.389929 0.108476 0.0
1.387545 0.133608 0.0
1.381787 0.153538 0.0
1.373239 0.168262 0.0
1.362079 0.177782 0.0
1.348245 0.182152 0.0
1.331583 0.181574 0.0
1.311964 0.176477 0.0
1.289400 0.167525 0.0
1.264107 0.155552 0.0
1.236524 0.141457 0.0
1.207263 0.126102 0.0
1.177042 0.110252 0.0
1.146609 0.094551 0.0
1.116672 0.079524 0.0
1.087855 0.065596 0.0
1.060661 0.053074 0.0
1.035457 0.042133 0.0
1.012487 0.032793 0.0
0.991919 0.024888 0.0
0.973870 0.018076 0.0
0.958441 0.011928 0.0
0.945733 0.006045 0.0
0.935852 0.000130 0.0
0.928874 -0.005959 0.0
0.924790 -0.012192 0.0
0.923494 -0.018391 0.0
0.924772 -0.024286 0.0
0.928301 -0.029578 0.0
0.933680 -0.034009 0.0
0.940464 -0.037401 0.0
0.948208 -0.039679 0.0
0.956502 -0.040858 0.0
0.964994 -0.041028 0.0
0.973401 -0.040326 0.0
0.981507 -0.038918 0.0
0.989163 -0.036972 0.0
0.996274 -0.034650 0.0
1.002790 -0.032095 0.0
1.008696 -0.029429 0.0
1.014001 -0.026750 0.0
1.018733 -0.024134 0.0
1.022929 -0.021633 0.0
1.026633 -0.019284 0.0
1.029892 -0.017110 0.0
1.032749 -0.015122 0.0
1.035249 -0.013320 0.0
1.037431 -0.011701 0.0
1.039333 -0.010257 0.0
1.040988 -0.008977 0.0
1.042425 -0.007849 0.0
1.043670 -0.006860 0.0
1.044746 -0.005997 0.0
1.045673 -0.005250 0.0
1.046467 -0.004607 0.0
1.047142 -0.004059 0.0
1.047709 -0.003598 0.0
1.048177 -0.003216 0.0
1.048553 -0.002906 0.0
1.048839 -0.002663 0.0
1.049036 -0.002481 0.0
1.049143 -0.002351 0.0
1.049156 -0.002265 0.0
1.049070 -0.002201 0.0
1.000554 -0.016746 0.0
1.002862 -0.051310 0.0
1.007932 -0.088826 0.0
1.016887 -0.131336 0.0
1.031967 -0.181099 0.0
1.057352 -0.240427 0.0
1.100515 -0.310976 0.0
1.173020 -0.388810 0.0
1.303386 -0.492076 0.0
1.423569 -0.392476 0.0
1.464845 -0.283358 0.0
1.469183 -0.201870 0.0
1.465724 -0.139276 0.0
1.464825 -0.085040 0.0
1.466173 -0.030298 0.0
1.463415 0.026008 0.0
1.451694 0.079172 0.0
1.430293 0.125357 0.0
1.400256 0.161835 0.0
1.363414 0.186956 0.0
1.321949 0.199825 0.0
1.278248 0.200191 0.0
1.234802 0.188456 0.0
1.194027 0.165769 0.0
1.157980 0.134133 0.0
1.127973 0.096351 0.0
1.104213 0.055768 0.0
1.085479 0.015566 0.0
1.070805 -0.023842 0.0
1.063690 -0.059597 0.0
1.070232 -0.083718 0.0
1.094118 -0.089381 0.0
1.134829 -0.072135 0.0
1.185632 -0.033216 0.0
1.232646 0.016531 0.0
1.266606 0.062184 0.0
1.289382 0.099522 0.0
1.304588 0.129740 0.0
1.313987 0.153765 0.0
1.318421 0.172150 0.0
1.318275 0.185201 0.0
1.313730 0.193112 0.0
1.304900 0.196106 0.0
1.291930 0.194534 0.0
1.275055 0.188907 0.0
1.254644 0.179873 0.0
1.231206 0.168156 0.0
1.205372 0.154497 0.0
1.177849 0.139600 0.0
1.149370 0.124115 0.0
1.120642 0.108625 0.0
1.092302 0.093653 0.0
1.064886 0.079627 0.0
1.038827 0.066843 0.0
1.014477 0.055403 0.0
0.992145 0.045179 0.0
0.972133 0.035845 0.0
0.954750 0.026972 0.0
0.940298 0.018161 0.0
0.929041 0.009151 0.0
0.921158 -0.000118 0.0
0.916712 -0.009504 0.0
0.915619 -0.018690 0.0
0.917609 -0.027253 0.0
0.922236 -0.034768 0.0
0.928945 -0.040907 0.0
0.937142 -0.045484 0.0
0.946262 -0.048460 0.0
0.955810 -0.049919 0.0
0.965382 -0.050031 0.0
0.974669 -0.049017 0.0
0.983455 -0.047119 0.0
0.991599 -0.044571 0.0
0.999027 -0.041589 0.0
1.005714 -0.038358 0.0
1.011672 -0.035029 0.0
1.016937 -0.031720 0.0
1.021560 -0.028518 0.0
1.025600 -0.025484 0.0
1.029118 -0.022655 0.0
1.032174 -0.020053 0.0
1.034823 -0.017686 0.0
1.037118 -0.015550 0.0
1.039103 -0.013639 0.0
1.040819 -0.011938 0.0
1.042302 -0.010433 0.0
1.043580 -0.009108 0.0
1.044681 -0.007946 0.0
1.045627 -0.006932 0.0
1.046435 -0.006050 0.0
1.047122 -0.005288 0.0
1.047701 -0.004632 0.0
1.048181 -0.004072 0.0
1.048570 -0.003599 0.0
1.048875 -0.003202 0.0
1.049097 -0.002875 0.0
1.049238 -0.002607 0.0
1.049298 -0.002391 0.0
1.049276 -0.002216 0.0
1.049170 -0.002058 0.0
1.000007 -0.017307 0.0
1.000073 -0.053124 0.0
1.000435 -0.092443 0.0
1.001774 -0.138013 0.0
1.005732 -0.193460 0.0
1.016116 -0.263835 0.0
1.041682 -0.356297 0.0
1.101760 -0.476072 0.0
1.260894 -0.694314 0.0
1.370796 -0.420322 0.0
1.327354 -0.253347 0.0
1.263556 -0.172421 0.0
1.220038 -0.121749 0.0
1.201219 -0.082848 0.0
1.205063 -0.037683 0.0
1.215717 0.025498 0.0
1.217980 0.089140 0.0
1.209390 0.145379 0.0
1.190469 0.190771 0.0
1.162070 0.223260 0.0
1.125474 0.241581 0.0
1.082404 0.245206 0.0
1.034815 0.234478 0.0
0.984419 0.210918 0.0
0.931949 0.177501 0.0
0.876930 0.138008 0.0
0.819606 0.095197 0.0
0.764543 0.049934 0.0
0.719260 0.001747 0.0
0.691836 -0.050648 0.0
0.690144 -0.097517 0.0
0.716733 -0.126055 0.0
0.768651 -0.128090 0.0
0.841742 -0.101154 0.0
0.929421 -0.050224 0.0
1.015437 0.008963 0.0
1.084047 0.061358 0.0
1.134871 0.101874 0.0
1.173195 0.133907 0.0
1.201586 0.159182 0.0
1.221399 0.178501 0.0
1.233507 0.192250 0.0
1.238598 0.200706 0.0
1.237310 0.204192 0.0
1.230290 0.203145 0.0
1.218222 0.198114 0.0
1.201844 0.189731 0.0
1.181933 0.178667 0.0
1.159287 0.165599 0.0
1.134691 0.151191 0.0
1.108880 0.136087 0.0
1.082515 0.120896 0.0
1.056170 0.106144 0.0
1.030354 0.092201 0.0
1.005549 0.079200 0.0
0.982258 0.067004 0.0
0.961031 0.055259 0.0
0.942449 0.043524 0.0
0.927076 0.031433 0.0
0.915388 0.018823 0.0
0.907700 0.005781 0.0
0.904117 -0.007374 0.0
0.904491 -0.020100 0.0
0.908387 -0.031727 0.0
0.915138 -0.041672 0.0
0.923979 -0.049553 0.0
0.934163 -0.055219 0.0
0.945032 -0.058714 0.0
0.956047 -0.060229 0.0
0.966798 -0.060044 0.0
0.976990 -0.058484 0.0
0.986430 -0.055878 0.0
0.995010 -0.052536 0.0
1.002686 -0.048730 0.0
1.009469 -0.044688 0.0
1.015401 -0.040590 0.0
1.020548 -0.036572 0.0
1.024988 -0.032730 0.0
1.028801 -0.029126 0.0
1.032069 -0.025798 0.0
1.034864 -0.022761 0.0
1.037253 -0.020017 0.0
1.039296 -0.017557 0.0
1.041044 -0.015365 0.0
1.042539 -0.013423 0.0
1.043818 -0.011710 0.0
1.044913 -0.010205 0.0
1.045847 -0.008886 0.0
1.046643 -0.007734 0.0
1.047318 -0.006732 0.0
1.047886 -0.005862 0.0
1.048358 -0.005109 0.0
1.048743 -0.004461 0.0
1.049048 -0.003905 0.0
1.049278 -0.003430 0.0
1.049435 -0.003026 0.0
1.049520 -0.002683 0.0
1.049535 -0.002391 0.0
1.049479 -0.002139 0.0
1.049351 -0.001900 0.0
0.999374 -0.016688 0.0
0.996817 -0.051253 0.0
0.991525 -0.089384 0.0
0.983214 -0.134099 0.0
0.971701 -0.189819 0.0
0.957606 -0.263765 0.0
0.944702 -0.369030 0.0
0.948606 -0.527322 0.0
1.054420 -0.908012 0.0
1.054165 -0.206532 0.0
0.860727 -0.108582 0.0
0.716296 -0.097020 0.0
0.642186 -0.079523 0.0
0.613707 -0.077776 0.0
0.633786 -0.066679 0.0
0.687765 -0.010137 0.0
0.741140 0.069136 0.0
0.775733 0.139380 0.0
0.792734 0.198692 0.0
0.791678 0.244794 0.0
0.772357 0.275965 0.0
0.734716 0.291532 0.0
0.678534 0.291924 0.0
0.604157 0.278244 0.0
0.515214 0.251588 0.0
0.421761 0.212393 0.0
0.339904 0.159992 0.0
0.286884 0.093221 0.0
0.272390 0.018238 0.0
0.291912 -0.059237 0.0
0.332639 -0.127963 0.0
0.386160 -0.175718 0.0
0.451268 -0.195454 0.0
0.529330 -0.184943 0.0
0.621446 -0.146230 0.0
0.726413 -0.086016 0.0
0.833672 -0.019532 0.0
0.925468 0.040145 0.0
0.995656 0.087124 0.0
1.049462 0.123768 0.0
1.090755 0.152809 0.0
1.121354 0.175236 0.0
1.142460 0.191523 0.0
1.155073 0.202050 0.0
1.160128 0.207253 0.0
1.158543 0.207659 0.0
1.151230 0.203877 0.0
1.139093 0.196570 0.0
1.123007 0.186429 0.0
1.103800 0.174165 0.0
1.082230 0.160494 0.0
1.058980 0.146104 0.0
1.034680 0.131581 0.0
1.009953 0.117307 0.0
0.985479 0.103372 0.0
0.962042 0.089559 0.0
0.940530 0.075443 0.0
0.921875 0.060576 0.0
0.906953 0.044676 0.0
0.896455 0.027766 0.0
0.890788 0.010194 0.0
0.889987 -0.007403 0.0
0.893627 -0.024086 0.0
0.900876 -0.038887 0.0
0.910732 -0.051120 0.0
0.922235 -0.060449 0.0
0.934569 -0.066840 0.0
0.947090 -0.070482 0.0
0.959320 -0.071706 0.0
0.970918 -0.070916 0.0
0.981659 -0.068544 0.0
0.991409 -0.065008 0.0
1.000111 -0.060687 0.0
1.007764 -0.055908 0.0
1.014410 -0.050938 0.0
1.020122 -0.045983 0.0
1.024990 -0.041193 0.0
1.029112 -0.036670 0.0
1.032589 -0.032476 0.0
1.035513 -0.028640 0.0
1.037970 -0.025171 0.0
1.040035 -0.022062 0.0
1.041773 -0.019293 0.0
1.043238 -0.016841 0.0
1.044475 -0.014679 0.0
1.045521 -0.012779 0.0
1.046405 -0.011114 0.0
1.047152 -0.009658 0.0
1.047781 -0.008387 0.0
1.048308 -0.007280 0.0
1.048745 -0.006318 0.0
1.049102 -0.005482 0.0
1.049385 -0.004757 0.0
1.049601 -0.004129 0.0
1.049753 -0.003587 0.0
1.049844 -0.003116 0.0
1.049873 -0.002708 0.0
1.049843 -0.002350 0.0
1.049753 -0.002033 0.0
1.049602 -0.001726 0.0
0.998764 -0.014826 0.0
0.993675 -0.045469 0.0
0.982862 -0.079061 0.0
0.964870 -0.118118 0.0
0.936990 -0.166408 0.0
0.894249 -0.230339 0.0
0.826935 -0.322238 0.0
0.716199 -0.467280 0.0
0.323441 -0.790849 0.0
-0.479377 0.288325 0.0
-0.479377 0.000000 0.0
-0.035665 -0.024617 0.0
-0.053660 -0.070869 0.0
0.006497 -0.118107 0.0
0.096809 -0.136739 0.0
0.191960 -0.089206 0.0
0.278686 0.008104 0.0
0.342708 0.101796 0.0
0.379604 0.182380 0.0
0.391885 0.249881 0.0
0.379283 0.302802 0.0
0.341689 0.339929 0.0
0.281449 0.359950 0.0
0.206183 0.359860 0.0
0.129851 0.335247 0.0
0.068645 0.283393 0.0
0.034670 0.204823 0.0
0.035643 0.100439 0.0
0.067011 -0.005854 0.0
0.113351 -0.101008 0.0
0.164845 -0.178414 0.0
0.219261 -0.233204 0.0
0.278069 -0.261885 0.0
0.344468 -0.262972 0.0
0.421569 -0.237418 0.0
0.510804 -0.189029 0.0
0.611042 -0.124016 0.0
0.716435 -0.052560 0.0
0.813024 0.013052 0.0
0.890269 0.066788 0.0
0.949990 0.108774 0.0
0.996524 0.142137 0.0
1.031943 0.168096 0.0
1.057542 0.187264 0.0
1.074377 0.200149 0.0
1.083423 0.207302 0.0
1.085619 0.209351 0.0
1.081867 0.206985 0.0
1.073028 0.200939 0.0
1.059903 0.191987 0.0
1.043234 0.180912 0.0
1.023724 0.168447 0.0
1.002093 0.155170 0.0
0.979160 0.141379 0.0
0.955913 0.127021 0.0
0.933535 0.111725 0.0
0.913347 0.094977 0.0
0.896675 0.076369 0.0
0.884658 0.055823 0.0
0.878063 0.033711 0.0
0.877156 0.010824 0.0
0.881551 -0.011626 0.0
0.890182 -0.032134 0.0
0.901684 -0.049589 0.0
0.914826 -0.063415 0.0
0.928648 -0.073479 0.0
0.942460 -0.079957 0.0
0.955791 -0.083218 0.0
0.968330 -0.083738 0.0
0.979883 -0.082035 0.0
0.990344 -0.078626 0.0
0.999666 -0.073999 0.0
1.007855 -0.068586 0.0
1.014950 -0.062757 0.0
1.021024 -0.056808 0.0
1.026165 -0.050966 0.0
1.030477 -0.045390 0.0
1.034065 -0.040184 0.0
1.037034 -0.035407 0.0
1.039484 -0.031081 0.0
1.041500 -0.027204 0.0
1.043161 -0.023756 0.0
1.044532 -0.020708 0.0
1.045665 -0.018025 0.0
1.046604 -0.015672 0.0
1.047385 -0.013613 0.0
1.048034 -0.011814 0.0
1.048574 -0.010245 0.0
1.049021 -0.008877 0.0
1.049388 -0.007685 0.0
1.049685 -0.006647 0.0
1.049919 -0.005743 0.0
1.050095 -0.004956 0.0
1.050219 -0.004270 0.0
1.050291 -0.003670 0.0
1.050313 -0.003145 0.0
1.050286 -0.002682 0.0
1.050210 -0.002270 0.0
1.050086 -0.001899 0.0
1.049911 -0.001535 0.0
0.998309 -0.011899 0.0
0.991343 -0.036341 0.0
0.976495 -0.062527 0.0
0.951597 -0.091762 0.0
0.912460 -0.125748 0.0
0.850999 -0.166797 0.0
0.750443 -0.217912 0.0
0.570916 -0.281342 0.0
0.227148 -0.344288 0.0
0.000000 0.288325 0.0
-0.000000 -0.000000 0.0
0.000000 0.000000 0.0
-0.044148 -0.044270 0.0
-0.092433 -0.156456 0.0
-0.087024 -0.194112 0.0
-0.063541 -0.150467 0.0
-0.026630 -0.054272 0.0
0.015967 0.057552 0.0
0.046888 0.158808 0.0
0.059518 0.248541 0.0
0.051885 0.324377 0.0
0.025541 0.382292 0.0
-0.012965 0.416333 0.0
-0.052845 0.418623 0.0
-0.082064 0.382035 0.0
-0.090013 0.305761 0.0
-0.070894 0.197310 0.0
-0.024112 0.060197 0.0
0.035283 -0.056375 0.0
0.091652 -0.153196 0.0
0.143523 -0.229590 0.0
0.191063 -0.283983 0.0
0.236454 -0.315305 0.0
0.283667 -0.323163 0.0
0.337344 -0.308006 0.0
0.401226 -0.271557 0.0
0.476736 -0.217235 0.0
0.562329 -0.150326 0.0
0.653832 -0.077275 0.0
0.741921 -0.008219 0.0
0.816023 0.049958 0.0
0.874486 0.095956 0.0
0.920722 0.132622 0.0
0.956579 0.161282 0.0
0.983203 0.182673 0.0
1.001505 0.197429 0.0
1.012312 0.206223 0.0
1.016398 0.209779 0.0
1.014503 0.208878 0.0
1.007338 0.204337 0.0
0.995609 0.196959 0.0
0.980078 0.187440 0.0
0.961655 0.176231 0.0
0.941487 0.163419 0.0
0.921010 0.148704 0.0
0.901902 0.131529 0.0
0.885912 0.111352 0.0
0.874608 0.087970 0.0
0.869099 0.061747 0.0
0.869824 0.033656 0.0
0.876443 0.005167 0.0
0.887653 -0.021574 0.0
0.901629 -0.044792 0.0
0.916820 -0.063624 0.0
0.932145 -0.077849 0.0
0.946929 -0.087651 0.0
0.960779 -0.093447 0.0
0.973494 -0.095773 0.0
0.984988 -0.095217 0.0
0.995249 -0.092371 0.0
1.004304 -0.087806 0.0
1.012206 -0.082044 0.0
1.019025 -0.075548 0.0
1.024842 -0.068708 0.0
1.029747 -0.061836 0.0
1.033838 -0.055170 0.0
1.037213 -0.048872 0.0
1.039971 -0.043048 0.0
1.042207 -0.037750 0.0
1.044010 -0.032991 0.0
1.045458 -0.028759 0.0
1.046618 -0.025022 0.0
1.047549 -0.021742 0.0
1.048296 -0.018872 0.0
1.048898 -0.016367 0.0
1.049384 -0.014184 0.0
1.049775 -0.012284 0.0
1.050090 -0.010630 0.0
1.050341 -0.009190 0.0
1.050538 -0.007935 0.0
1.050687 -0.006842 0.0
1.050793 -0.005888 0.0
1.050859 -0.005054 0.0
1.050887 -0.004323 0.0
1.050878 -0.003680 0.0
1.050832 -0.003112 0.0
1.050748 -0.002606 0.0
1.050627 -0.002150 0.0
1.050467 -0.001735 0.0
1.050269 -0.001326 0.0
0.998097 -0.008304 0.0
0.990284 -0.025157 0.0
0.973750 -0.042330 0.0
0.946414 -0.059727 0.0
0.904537 -0.076770 0.0
0.841847 -0.091623 0.0
0.748811 -0.099494 0.0
0.613895 -0.085319 0.0
0.432868 -0.009804 0.0
0.165621 0.147761 0.0
0.000000 0.000000 0.0
-0.000000 -0.000000 0.0
0.000000 0.000000 0.0
-0.073818 -0.076159 0.0
-0.161248 -0.190046 0.0
-0.179104 -0.160160 0.0
-0.183102 -0.077492 0.0
-0.173582 0.028655 0.0
-0.154408 0.137611 0.0
-0.138409 0.241109 0.0
-0.131096 0.332128 0.0
-0.131984 0.401774 0.0
-0.136103 0.439476 0.0
-0.135759 0.435017 0.0
-0.121317 0.380418 0.0
-0.079569 0.273579 0.0
-0.008982 0.139787 0.0
0.065947 -0.003992 0.0
0.130765 -0.116399 0.0
0.188239 -0.207015 0.0
0.236722 -0.276126 0.0
0.275720 -0.323985 0.0
0.306597 -0.351571 0.0
0.332650 -0.360163 0.0
0.358843 -0.350877 0.0
0.390810 -0.324535 0.0
0.433188 -0.282145 0.0
0.487983 -0.225805 0.0
0.553926 -0.159243 0.0
0.627161 -0.087575 0.0
0.700784 -0.018410 0.0
0.765762 0.040884 0.0
0.818648 0.088573 0.0
0.861282 0.126840 0.0
0.894874 0.156899 0.0
0.920207 0.179567 0.0
0.937898 0.195588 0.0
0.948509 0.205717 0.0
0.952604 0.210739 0.0
0.950800 0.211445 0.0
0.943828 0.208553 0.0
0.932623 0.202581 0.0
0.918431 0.193705 0.0
0.902862 0.181682 0.0
0.887850 0.165930 0.0
0.875463 0.145797 0.0
0.867595 0.120941 0.0
0.865608 0.091672 0.0
0.870064 0.059099 0.0
0.880621 0.025021 0.0
0.895783 -0.007980 0.0
0.913243 -0.037098 0.0
0.931054 -0.061055 0.0
0.948060 -0.079557 0.0