# vtk DataFile Version 3.0
Scalar Field
ASCII
DATASET RECTILINEAR_GRID
DIMENSIONS 100 26 1
X_COORDINATES 100 double
0.050000 0.150000 0.250000 0.350000 0.450000 0.550000 0.650000 0.750000 0.850000 0.950000 1.050000 1.150000 1.250000 1.350000 1.450000 1.550000 1.650000 1.750000 1.850000 1.950000 2.050000 2.150000 2.250000 2.350000 2.450000 2.550000 2.650000 2.750000 2.850000 2.950000 3.050000 3.150000 3.250000 3.350000 3.450000 3.550000 3.650000 3.750000 3.850000 3.950000 4.050000 4.150000 4.250000 4.350000 4.450000 4.550000 4.650000 4.750000 4.850000 4.950000 5.050000 5.150000 5.250000 5.350000 5.450000 5.550000 5.650000 5.750000 5.850000 5.950000 6.050000 6.150000 6.250000 6.350000 6.450000 6.550000 6.650000 6.750000 6.850000 6.950000 7.050000 7.150000 7.250000 7.350000 7.450000 7.550000 7.650000 7.750000 7.850000 7.950000 8.050000 8.150000 8.250000 8.350000 8.450000 8.550000 8.650000 8.750000 8.850000 8.950000 9.050000 9.150000 9.250000 9.350000 9.450000 9.550000 9.650000 9.750000 9.850000 9.950000 
Y_COORDINATES 26 double
0.050000 0.150000 0.250000 0.350000 0.450000 0.550000 0.650000 0.750000 0.850000 0.950000 1.050000 1.150000 1.250000 1.350000 1.450000 1.550000 1.650000 1.750000 1.850000 1.950000 2.050000 2.150000 2.250000 2.350000 2.450000 2.550000 
Z_COORDINATES 1 double
0.0
POINT_DATA 2600
SCALARS Skalarfeld double 1
LOOKUP_TABLE default
0.302271
0.287235
0.272718
0.255674
0.234980
0.210152
0.181090
0.148062
0.111745
0.073236
0.033963
-0.004553
-0.040955
-0.074222
-0.103725
-0.129184
-0.150615
-0.167641
-0.180287
-0.188615
-0.192698
-0.192697
-0.188920
-0.181861
-0.172184
-0.160666
-0.148105
-0.135221
-0.122562
-0.110447
-0.098940
-0.087872
-0.076910
-0.065656
-0.053741
-0.040897
-0.027208
-0.011177
0.005288
0.020704
0.034084
0.044789
0.052471
0.057059
0.058467
0.057774
0.054727
0.049153
0.040905
0.029923
0.016420
0.001218
-0.013927
-0.026543
-0.034614
-0.037946
-0.037650
-0.035068
-0.031233
-0.026154
-0.020402
-0.014570
-0.009100
-0.004299
-0.000351
0.002657
0.004693
0.005731
0.005953
0.005292
0.003913
0.002038
-0.000053
-0.002056
-0.003704
-0.004873
-0.005672
-0.006459
-0.007753
-0.010072
-0.013759
-0.018865
-0.025141
-0.032138
-0.039363
-0.046444
-0.053204
-0.059647
-0.065862
-0.071883
-0.077741
-0.083277
-0.088573
-0.093769
-0.099046
-0.104602
-0.110603
-0.117139
-0.124182
-0.131802
0.293000
0.286775
0.275248
0.259419
0.239131
0.214155
0.184427
0.150223
0.112298
0.071954
0.030932
-0.008976
-0.046292
-0.080019
-0.109626
-0.134917
-0.155795
-0.172581
-0.185271
-0.193727
-0.197950
-0.198027
-0.194204
-0.186942
-0.176903
-0.164887
-0.151732
-0.138199
-0.124876
-0.112112
-0.099994
-0.088366
-0.076906
-0.065216
-0.052903
-0.039481
-0.024342
-0.008579
0.007106
0.021737
0.034497
0.044773
0.052213
0.056845
0.059070
0.058194
0.054895
0.049047
0.040507
0.029170
0.015201
-0.000531
-0.016044
-0.028585
-0.036096
-0.038550
-0.037870
-0.035691
-0.032172
-0.026858
-0.020933
-0.014965
-0.009381
-0.004477
-0.000438
0.002652
0.004813
0.006113
0.006328
0.005510
0.004018
0.002055
-0.000084
-0.002070
-0.003617
-0.004598
-0.005147
-0.005663
-0.006728
-0.008925
-0.012648
-0.017950
-0.024525
-0.031831
-0.039287
-0.046475
-0.053241
-0.059653
-0.065880
-0.071835
-0.077546
-0.083056
-0.088349
-0.093567
-0.098888
-0.104516
-0.110611
-0.117223
-0.124237
-0.132055
0.295244
0.291386
0.281786
0.267043
0.247104
0.221694
0.190619
0.154062
0.112872
0.068739
0.024140
-0.018519
-0.057528
-0.091992
-0.121659
-0.146670
-0.167322
-0.183955
-0.196809
-0.205754
-0.210509
-0.210973
-0.207216
-0.199589
-0.188723
-0.175454
-0.160690
-0.145277
-0.129894
-0.114979
-0.100714
-0.087041
-0.073728
-0.060448
-0.046849
-0.032592
-0.017440
-0.002524
0.011816
0.024973
0.036307
0.045254
0.051456
0.054878
0.055810
0.054156
0.049685
0.043099
0.034352
0.023410
0.010523
-0.003425
-0.016751
-0.027449
-0.034264
-0.037342
-0.037607
-0.035537
-0.031129
-0.025973
-0.020561
-0.014837
-0.009416
-0.004629
-0.000694
0.002267
0.004220
0.005189
0.005227
0.004530
0.003174
0.001502
-0.000174
-0.001601
-0.002613
-0.003202
-0.003586
-0.004135
-0.005360
-0.007741
-0.011644
-0.017090
-0.023747
-0.031081
-0.038521
-0.045684
-0.052457
-0.058897
-0.065039
-0.071057
-0.076915
-0.082475
-0.087783
-0.093105
-0.098606
-0.104514
-0.110988
-0.118026
-0.125308
-0.132777
0.304652
0.301579
0.293070
0.279137
0.259401
0.233238
0.200056
0.159722
0.113114
0.062529
0.012064
-0.034728
-0.075909
-0.110945
-0.140165
-0.164310
-0.184198
-0.200484
-0.213452
-0.223115
-0.228728
-0.229842
-0.226216
-0.218023
-0.205872
-0.190676
-0.173469
-0.155234
-0.136784
-0.118692
-0.101280
-0.084647
-0.068719
-0.053331
-0.038283
-0.023416
-0.008685
0.005510
0.018694
0.030420
0.040097
0.047152
0.051237
0.052342
0.050770
0.046962
0.041071
0.033315
0.024332
0.014206
0.003203
-0.008005
-0.018314
-0.026525
-0.031907
-0.034426
-0.034441
-0.032332
-0.028536
-0.023753
-0.018224
-0.012861
-0.007972
-0.003624
-0.000103
0.002428
0.003906
0.004359
0.003932
0.002893
0.001531
0.000165
-0.000979
-0.001782
-0.002235
-0.002443
-0.002604
-0.003077
-0.004290
-0.006705
-0.010595
-0.015909
-0.022299
-0.029378
-0.036650
-0.043799
-0.050690
-0.057308
-0.063654
-0.069718
-0.075389
-0.080855
-0.086388
-0.092052
-0.097895
-0.104314
-0.111512
-0.119559
-0.128172
-0.137340
0.319738
0.317083
0.309422
0.296325
0.276915
0.249924
0.213943
0.168042
0.112845
0.051416
-0.008217
-0.060519
-0.103748
-0.138415
-0.165963
-0.188089
-0.206365
-0.221942
-0.235247
-0.245967
-0.253013
-0.255209
-0.251768
-0.242636
-0.228488
-0.210461
-0.189850
-0.167871
-0.145523
-0.123541
-0.102398
-0.082348
-0.063482
-0.045786
-0.029196
-0.013632
0.000971
0.014622
0.027030
0.037617
0.045702
0.050613
0.052039
0.050093
0.045234
0.038169
0.029782
0.020795
0.011481
0.002250
-0.006713
-0.015056
-0.022216
-0.027593
-0.030816
-0.031853
-0.030908
-0.028300
-0.024426
-0.019757
-0.014710
-0.009777
-0.005174
-0.001315
0.001663
0.003598
0.004437
0.004194
0.003081
0.001466
-0.000234
-0.001662
-0.002629
-0.003084
-0.003106
-0.002897
-0.002746
-0.003014
-0.004090
-0.006305
-0.009865
-0.014842
-0.020987
-0.027910
-0.034995
-0.042003
-0.048767
-0.055239
-0.061418
-0.067319
-0.072973
-0.078500
-0.084011
-0.089684
-0.095989
-0.103183
-0.111442
-0.121083
-0.132128
-0.147100
0.339714
0.337483
0.330878
0.319105
0.300691
0.273386
0.234297
0.180667
0.111905
0.031392
-0.042076
-0.100372
-0.143904
-0.175756
-0.199226
-0.217325
-0.232637
-0.247051
-0.261290
-0.274332
-0.284123
-0.288433
-0.285473
-0.274939
-0.257805
-0.235724
-0.210478
-0.183658
-0.156515
-0.129958
-0.104590
-0.080783
-0.058743
-0.038564
-0.020268
-0.003818
0.010880
0.023996
0.035875
0.045641
0.052412
0.055287
0.054085
0.049141
0.041055
0.030623
0.018870
0.007017
-0.003139
-0.011757
-0.018893
-0.024578
-0.028734
-0.031221
-0.031966
-0.031034
-0.028624
-0.025020
-0.020569
-0.015652
-0.010638
-0.005876
-0.001641
0.001789
0.004219
0.005504
0.005532
0.004396
0.002351
-0.000176
-0.002660
-0.004527
-0.005710
-0.006158
-0.005940
-0.005323
-0.004685
-0.004454
-0.005051
-0.006829
-0.010006
-0.014607
-0.020485
-0.027122
-0.034055
-0.040921
-0.047429
-0.053528
-0.059251
-0.064674
-0.069913
-0.075125
-0.080505
-0.086318
-0.092929
-0.100671
-0.110107
-0.121595
-0.135530
-0.158147
0.363787
0.362153
0.357168
0.347759
0.331839
0.305875
0.264504
0.200976
0.110306
-0.006446
-0.098866
-0.159757
-0.198245
-0.222525
-0.238064
-0.249118
-0.259354
-0.271719
-0.287750
-0.306160
-0.321557
-0.330150
-0.328469
-0.316071
-0.294748
-0.267159
-0.235896
-0.203066
-0.170219
-0.138419
-0.108358
-0.080471
-0.055017
-0.032150
-0.011954
0.005532
0.020329
0.032574
0.043010
0.051973
0.057751
0.058839
0.055458
0.048367
0.038312
0.025969
0.012121
-0.002148
-0.015485
-0.025152
-0.031389
-0.035210
-0.036981
-0.036963
-0.035363
-0.032402
-0.028335
-0.023459
-0.018099
-0.012592
-0.007262
-0.002398
0.001750
0.004954
0.006995
0.007668
0.006840
0.004580
0.001222
-0.002668
-0.006426
-0.009511
-0.011327
-0.011938
-0.011484
-0.010345
-0.009011
-0.007999
-0.007792
-0.008784
-0.011235
-0.015214
-0.020573
-0.026908
-0.033791
-0.040476
-0.046728
-0.052412
-0.057569
-0.062327
-0.066879
-0.071467
-0.076374
-0.081937
-0.088559
-0.096713
-0.106985
-0.120001
-0.136505
-0.165277
0.390839
0.390065
0.387521
0.382045
0.371174
0.350126
0.310085
0.236296
0.108577
-0.082891
-0.192637
-0.241082
-0.263638
-0.274016
-0.277437
-0.278183
-0.280606
-0.288834
-0.306157
-0.332605
-0.360830
-0.377487
-0.378662
-0.364188
-0.337653
-0.303412
-0.265167
-0.225621
-0.186590
-0.149240
-0.114302
-0.082219
-0.053265
-0.027622
-0.005438
0.013104
0.027770
0.038456
0.045466
0.050456
0.055404
0.054573
0.049462
0.041759
0.032146
0.020734
0.007687
-0.006406
-0.020398
-0.032726
-0.040748
-0.044160
-0.044817
-0.043287
-0.040040
-0.035477
-0.029967
-0.023867
-0.017526
-0.011283
-0.005450
-0.000300
0.003925
0.006986
0.008619
0.008554
0.006621
0.002911
-0.002126
-0.007723
-0.012992
-0.017195
-0.019801
-0.020467
-0.019584
-0.017707
-0.015451
-0.013421
-0.012158
-0.012096
-0.013533
-0.016585
-0.021160
-0.026944
-0.033466
-0.040136
-0.046239
-0.051560
-0.056201
-0.060291
-0.064074
-0.067870
-0.072054
-0.077047
-0.083327
-0.091443
-0.102039
-0.115864
-0.133823
-0.165789
0.419271
0.419625
0.420389
0.420663
0.418278
0.408226
0.378868
0.303113
0.113022
-0.249660
-0.335778
-0.331607
-0.325971
-0.320064
-0.310641
-0.300293
-0.293481
-0.294867
-0.309893
-0.341555
-0.385047
-0.419328
-0.426163
-0.410429
-0.379007
-0.338576
-0.294039
-0.248582
-0.204175
-0.162022
-0.122864
-0.087163
-0.055223
-0.027276
-0.003586
0.015415
0.029042
0.036735
0.039215
0.038753
0.036167
0.033386
0.029326
0.024306
0.018283
0.010851
0.001640
-0.009307
-0.021309
-0.033054
-0.042896
-0.048681
-0.049710
-0.048039
-0.044282
-0.038995
-0.032669
-0.025758
-0.018685
-0.011836
-0.005558
-0.000151
0.004106
0.006926
0.007979
0.006939
0.003625
-0.001794
-0.008685
-0.016020
-0.022660
-0.027706
-0.030589
-0.030953
-0.029356
-0.026501
-0.023123
-0.019904
-0.017430
-0.016164
-0.016423
-0.018360
-0.021936
-0.026903
-0.032827
-0.039135
-0.045231
-0.050385
-0.054621
-0.058154
-0.061227
-0.064212
-0.067553
-0.071746
-0.077333
-0.084909
-0.095145
-0.108812
-0.126811
-0.158899
0.446994
0.448627
0.453241
0.460603
0.469856
0.478163
0.476439
0.434115
0.213200
-0.563943
-0.503941
-0.387332
-0.361072
-0.348977
-0.333555
-0.317389
-0.306157
-0.303253
-0.313744
-0.342271
-0.386776
-0.433313
-0.454419
-0.439521
-0.405728
-0.362177
-0.314615
-0.266366
-0.219369
-0.174828
-0.133537
-0.096065
-0.062881
-0.034486
-0.011593
0.004801
0.013848
0.015810
0.012720
0.007647
0.002490
-0.000188
-0.001065
-0.001292
-0.001763
-0.003366
-0.006874
-0.012701
-0.020664
-0.029885
-0.038942
-0.046263
-0.049931
-0.049348
-0.046285
-0.041344
-0.035089
-0.028064
-0.020785
-0.013725
-0.007304
-0.001892
0.002166
0.004508
0.004737
0.002489
-0.002379
-0.009561
-0.018187
-0.026970
-0.034579
-0.040041
-0.042674
-0.042352
-0.039746
-0.035688
-0.031020
-0.026494
-0.022732
-0.020206
-0.019238
-0.019994
-0.022470
-0.026472
-0.031617
-0.037366
-0.043109
-0.048278
-0.052255
-0.055364
-0.057845
-0.060079
-0.062547
-0.065791
-0.070388
-0.076949
-0.086133
-0.098661
-0.115334
-0.144950
0.471645
0.474474
0.482733
0.497029
0.518386
0.548156
0.587376
0.633273
0.720393
0.078225
-0.437922
-0.371902
-0.366197
-0.360075
-0.351514
-0.341289
-0.332461
-0.328058
-0.333232
-0.352512
-0.385807
-0.423268
-0.447016
-0.440858
-0.407547
-0.364922
-0.318904
-0.272383
-0.227000
-0.183884
-0.143925
-0.107907
-0.076632
-0.051075
-0.032455
-0.021907
-0.019550
-0.023571
-0.030470
-0.036787
-0.040082
-0.038790
-0.034559
-0.028939
-0.023237
-0.018601
-0.016004
-0.016135
-0.019204
-0.024785
-0.031806
-0.038785
-0.044225
-0.046293
-0.044801
-0.041160
-0.035865
-0.029506
-0.022681
-0.015957
-0.009848
-0.004813
-0.001285
0.000293
-0.000538
-0.004150
-0.010611
-0.019436
-0.029521
-0.039371
-0.047540
-0.053031
-0.055017
-0.053681
-0.049806
-0.044350
-0.038256
-0.032348
-0.027273
-0.023502
-0.021341
-0.020950
-0.022334
-0.025335
-0.029616
-0.034681
-0.039944
-0.044843
-0.048747
-0.051481
-0.053463
-0.055019
-0.056622
-0.058821
-0.062198
-0.067347
-0.074879
-0.085428
-0.099650
-0.124861
0.491022
0.494690
0.505490
0.524556
0.554052
0.597743
0.662145
0.758107
0.889961
0.910134
0.000000
-0.369279
-0.366656
-0.368424
-0.369467
-0.370015
-0.369258
-0.368633
-0.371225
-0.379205
-0.391933
-0.407050
-0.412727
-0.406673
-0.380973
-0.342470
-0.301775
-0.261086
-0.221487
-0.183900
-0.149260
-0.118563
-0.092979
-0.073928
-0.062862
-0.060399
-0.065157
-0.073584
-0.081395
-0.085345
-0.083234
-0.075962
-0.065494
-0.053613
-0.041823
-0.031358
-0.023215
-0.018136
-0.016522
-0.018280
-0.022706
-0.028546
-0.034278
-0.038487
-0.039369
-0.037689
-0.034028
-0.028992
-0.023229
-0.017383
-0.012055
-0.007796
-0.005128
-0.004577
-0.006654
-0.011718
-0.019733
-0.030031
-0.041309
-0.051925
-0.060357
-0.065583
-0.066648
-0.064052
-0.058717
-0.051728
-0.044134
-0.036822
-0.030463
-0.025515
-0.022258
-0.020821
-0.021201
-0.023251
-0.026670
-0.030999
-0.035672
-0.040106
-0.043794
-0.046258
-0.047804
-0.048725
-0.049467
-0.050555
-0.052540
-0.055974
-0.061398
-0.069335
-0.080286
-0.099801
0.503582
0.507560
0.519246
0.539756
0.571051
0.616002
0.677882
0.758356
0.851288
0.930306
0.835224
0.000000
-0.371989
-0.377321
-0.388705
-0.404412
-0.419468
-0.429620
-0.431006
-0.422554
-0.408230
-0.391499
-0.371162
-0.350855
-0.325182
-0.294930
-0.261010
-0.228496
-0.197557
-0.168716
-0.142847
-0.121115
-0.105026
-0.096279
-0.095985
-0.103332
-0.114948
-0.126057
-0.132631
-0.131447
-0.121885
-0.107581
-0.090469
-0.072423
-0.055017
-0.039483
-0.026736
-0.017426
-0.011945
-0.010349
-0.012220
-0.016587
-0.022055
-0.027125
-0.030565
-0.030898
-0.029171
-0.025850
-0.021564
-0.016996
-0.012810
-0.009637
-0.008086
-0.008761
-0.012212
-0.018771
-0.028284
-0.039920
-0.052217
-0.063423
-0.071945
-0.076720
-0.076613
-0.072606
-0.065733
-0.057197
-0.048137
-0.039494
-0.031954
-0.025956
-0.021743
-0.019406
-0.018914
-0.020121
-0.022741
-0.026346
-0.030394
-0.034314
-0.037620
-0.039747
-0.040831
-0.041110
-0.040971
-0.040888
-0.041360
-0.042874
-0.045882
-0.050791
-0.057947
-0.070999
0.508756
0.512515
0.523482
0.542413
0.570564
0.609447
0.660079
0.720148
0.775552
0.788979
0.740142
0.615999
0.000000
-0.393488
-0.409655
-0.446354
-0.482097
-0.509268
-0.508027
-0.477768
-0.431172
-0.379426
-0.329984
-0.287416
-0.250745
-0.222780
-0.196409
-0.172567
-0.151491
-0.133263
-0.118788
-0.109433
-0.106898
-0.112567
-0.126147
-0.144568
-0.162579
-0.174907
-0.177969
-0.168904
-0.152321
-0.131179
-0.107857
-0.084339
-0.062192
-0.042569
-0.026259
-0.013763
-0.005360
-0.001111
-0.000763
-0.003611
-0.008477
-0.013928
-0.018658
-0.021139
-0.021366
-0.019867
-0.017220
-0.014113
-0.011252
-0.009332
-0.009041
-0.011052
-0.015944
-0.024005
-0.034964
-0.047843
-0.061050
-0.072740
-0.081256
-0.085257
-0.083902
-0.078505
-0.070195
-0.060271
-0.049940
-0.040172
-0.031654
-0.024801
-0.019814
-0.016743
-0.015530
-0.016016
-0.017925
-0.020850
-0.024269
-0.027616
-0.030377
-0.032150
-0.032694
-0.032281
-0.031221
-0.029917
-0.028799
-0.028273
-0.028696
-0.030354
-0.033444
-0.039674
0.506957
0.510157
0.519408
0.535068
0.557538
0.586822
0.621478
0.656168
0.677439
0.660013
0.586413
0.491857
0.314426
0.000000
-0.461686
-0.513716
-0.554755
-0.589717
-0.576899
-0.522652
-0.446524
-0.363888
-0.286353
-0.221485
-0.172420
-0.137183
-0.111876
-0.096513
-0.085104
-0.078192
-0.077120
-0.083336
-0.098090
-0.121361
-0.150497
-0.180032
-0.203461
-0.215978
-0.212472
-0.195714
-0.172385
-0.145360
-0.117068
-0.089440
-0.063911
-0.041475
-0.022753
-0.008083
0.002390
0.008659
0.010895
0.009577
0.005622
0.000311
-0.004984
-0.009117
-0.011035
-0.011203
-0.010113
-0.008433
-0.006893
-0.006240
-0.007232
-0.010601
-0.016934
-0.026457
-0.038781
-0.052793
-0.066792
-0.078857
-0.087328
-0.089997
-0.087607
-0.081063
-0.071635
-0.060690
-0.049465
-0.038929
-0.029747
-0.022301
-0.016753
-0.013121
-0.011324
-0.011195
-0.012468
-0.014753
-0.017548
-0.020292
-0.022467
-0.023692
-0.023649
-0.022490
-0.020463
-0.017902
-0.015160
-0.012557
-0.010349
-0.008697
-0.007652
-0.006995
0.499214
0.501613
0.508447
0.519667
0.534957
0.553248
0.571807
0.584650
0.580541
0.541745
0.450170
0.296154
0.136996
-0.315938
-0.608819
-0.548976
-0.595654
-0.629980
-0.598066
-0.527200
-0.434392
-0.334956
-0.241053
-0.161044
-0.099246
-0.055965
-0.028249
-0.014108
-0.010185
-0.013770
-0.026863
-0.050203
-0.083490
-0.124414
-0.167811
-0.206371
-0.232820
-0.242437
-0.230619
-0.208503
-0.180395
-0.149524
-0.118315
-0.088532
-0.061395
-0.037682
-0.017827
-0.002011
0.009746
0.017507
0.021401
0.021721
0.019084
0.014506
0.009244
0.004456
0.001201
-0.000294
-0.000490
-0.000036
0.000330
-0.000181
-0.002382
-0.007043
-0.014736
-0.025605
-0.039140
-0.054102
-0.068692
-0.080893
-0.088839
-0.090513
-0.087261
-0.079976
-0.069949
-0.058543
-0.046966
-0.036147
-0.026702
-0.018973
-0.013092
-0.009054
-0.006774
-0.006093
-0.006760
-0.008408
-0.010556
-0.012655
-0.014187
-0.014757
-0.014045
-0.012080
-0.009050
-0.005221
-0.000870
0.003771
0.008551
0.013433
0.018516
0.025910
0.487009
0.488513
0.492704
0.499247
0.507370
0.515452
0.520367
0.516522
0.494799
0.441648
0.338990
0.161816
-0.143236
-0.768873
-0.668661
-0.569980
-0.589652
-0.592417
-0.552841
-0.480944
-0.389650
-0.291546
-0.197248
-0.114758
-0.048980
-0.000961
0.031646
0.050909
0.053337
0.042481
0.016990
-0.021426
-0.070048
-0.124243
-0.177034
-0.220218
-0.246562
-0.246809
-0.231266
-0.206270
-0.176222
-0.144310
-0.112770
-0.083109
-0.056294
-0.032891
-0.013173
0.002792
0.015076
0.023805
0.029112
0.031164
0.030303
0.027194
0.022815
0.018214
0.014398
0.012132
0.011056
0.010591
0.010016
0.008521
0.005260
-0.000545
-0.009423
-0.021420
-0.035904
-0.051535
-0.066444
-0.078630
-0.085585
-0.086548
-0.082889
-0.075468
-0.065528
-0.054358
-0.043075
-0.032522
-0.023249
-0.015551
-0.009539
-0.005212
-0.002498
-0.001266
-0.001297
-0.002257
-0.003690
-0.005069
-0.005878
-0.005714
-0.004256
-0.001439
0.002606
0.007676
0.013568
0.020134
0.027326
0.035238
0.044127
0.057944
0.471999
0.472642
0.474325
0.476570
0.478407
0.478075
0.472598
0.457238
0.424935
0.365797
0.266474
0.109041
-0.130258
-0.436623
-0.505039
-0.507728
-0.514238
-0.502095
-0.466008
-0.406686
-0.331540
-0.249512
-0.168778
-0.095706
-0.034294
0.014006
0.049360
0.072296
0.083530
0.070602
0.038719
-0.007480
-0.063237
-0.122258
-0.176590
-0.218043
-0.236412
-0.231931
-0.215054
-0.190370
-0.161691
-0.131796
-0.102566
-0.075210
-0.050459
-0.028722
-0.010186
0.005120
0.017284
0.026459
0.032805
0.036458
0.037591
0.036561
0.033978
0.030610
0.027277
0.024971
0.023520
0.022503
0.021272
0.019031
0.014933
0.008225
-0.001554
-0.014344
-0.029408
-0.045319
-0.060139
-0.071726
-0.077604
-0.078584
-0.075193
-0.068374
-0.059290
-0.049091
-0.038749
-0.028986
-0.020270
-0.012856
-0.006854
-0.002289
0.000869
0.002705
0.003391
0.003221
0.002613
0.002067
0.002082
0.003060
0.005331
0.009024
0.014061
0.020302
0.027610
0.035915
0.045269
0.055896
0.068226
0.088018
0.455781
0.455667
0.455184
0.453821
0.450606
0.443908
0.431188
0.408731
0.371453
0.312858
0.225305
0.101301
-0.061028
-0.240007
-0.339532
-0.384795
-0.403237
-0.397595
-0.373143
-0.330874
-0.275502
-0.213144
-0.149768
-0.090271
-0.038005
0.005290
0.038914
0.065284
0.074625
0.063750
0.034318
-0.009595
-0.062212
-0.116297
-0.163506
-0.195638
-0.205363
-0.200710
-0.185908
-0.164807
-0.140491
-0.115189
-0.090384
-0.066998
-0.045578
-0.026436
-0.009744
0.004429
0.016101
0.025368
0.032370
0.037253
0.040154
0.041263
0.040910
0.039488
0.038087
0.036616
0.035401
0.034292
0.032772
0.030104
0.025487
0.018227
0.007947
-0.005202
-0.020402
-0.036183
-0.050625
-0.061066
-0.066673
-0.068031
-0.065550
-0.060064
-0.052559
-0.043976
-0.035099
-0.026509
-0.018595
-0.011593
-0.005638
-0.000810
0.002854
0.005380
0.006883
0.007612
0.007950
0.008357
0.009303
0.011176
0.014317
0.018885
0.024858
0.032156
0.040702
0.050493
0.061668
0.074578
0.089842
0.115013
0.439755
0.439017
0.436771
0.432560
0.425536
0.414335
0.396957
0.370683
0.332099
0.277338
0.202736
0.106365
-0.008426
-0.127522
-0.215652
-0.270234
-0.298516
-0.304521
-0.292612
-0.265794
-0.227659
-0.182594
-0.134981
-0.088599
-0.046261
-0.009732
0.020345
0.041568
0.049142
0.041048
0.017948
-0.017131
-0.059139
-0.101434
-0.136621
-0.157018
-0.164563
-0.161673
-0.151062
-0.135477
-0.117200
-0.097903
-0.078683
-0.060198
-0.042813
-0.026751
-0.012185
0.000732
0.011886
0.021236
0.028814
0.034713
0.039044
0.041923
0.043655
0.044950
0.045503
0.045434
0.045086
0.044430
0.043077
0.040397
0.035680
0.028321
0.018027
0.005012
-0.009860
-0.025095
-0.038505
-0.048274
-0.054304
-0.056628
-0.055688
-0.052159
-0.046776
-0.040226
-0.033086
-0.025806
-0.018719
-0.012081
-0.006086
-0.000904
0.003354
0.006652
0.009041
0.010738
0.012089
0.013517
0.015451
0.018279
0.022310
0.027716
0.034536
0.042743
0.052308
0.063277
0.075852
0.090484
0.107984
0.137709
0.425081
0.423836
0.420189
0.413804
0.404021
0.389792
0.369639
0.341683
0.303765
0.253773
0.190259
0.113519
0.027310
-0.059524
-0.131881
-0.183972
-0.216106
-0.230106
-0.228340
-0.213582
-0.188795
-0.157302
-0.122427
-0.087140
-0.053830
-0.024245
0.000376
0.017258
0.024036
0.019377
0.003652
-0.020914
-0.050401
-0.079663
-0.103227
-0.118036
-0.124616
-0.123914
-0.117629
-0.107605
-0.095445
-0.082328
-0.068976
-0.055729
-0.042687
-0.029892
-0.017471
-0.005672
0.005205
0.014905
0.023270
0.030278
0.035980
0.040716
0.044587
0.047498
0.049584
0.050997
0.051854
0.052061
0.051287
0.049013
0.044646
0.037677
0.027873
0.015445
0.001270
-0.013034
-0.025700
-0.035669
-0.042498
-0.046268
-0.047337
-0.046135
-0.043095
-0.038637
-0.033154
-0.027004
-0.020513
-0.014015
-0.007775
-0.002131
0.002771
0.006883
0.010150
0.012795
0.015127
0.017531
0.020421
0.024145
0.028980
0.035127
0.042668
0.051612
0.061957
0.073763
0.087249
0.102909
0.121674
0.154631
0.412702
0.411015
0.406214
0.398148
0.386383
0.370170
0.348474
0.320051
0.283612
0.238110
0.183210
0.119936
0.051440
-0.016588
-0.076467
-0.123428
-0.155885
-0.174096
-0.179255
-0.173157
-0.158151
-0.136806
-0.111708
-0.085238
-0.059433
-0.035943
-0.016267
-0.002351
0.004322
0.002942
-0.006203
-0.021553
-0.040394
-0.059276
-0.075129
-0.085959
-0.091443
-0.092120
-0.089077
-0.083573
-0.076728
-0.069319
-0.061691
-0.053774
-0.045239
-0.035769
-0.025338
-0.014307
-0.003261
0.007241
0.016742
0.025144
0.032511
0.038761
0.043988
0.048276
0.051727
0.054435
0.056425
0.057570
0.057570
0.055992
0.052344
0.046178
0.037274
0.025677
0.012243
-0.001744
-0.014546
-0.025123
-0.033078
-0.038536
-0.041746
-0.042843
-0.041923
-0.039181
-0.034903
-0.029410
-0.023084
-0.016446
-0.009648
-0.003436
0.002147
0.006930
0.010998
0.014452
0.017582
0.020752
0.024341
0.028702
0.034130
0.040838
0.048930
0.058428
0.069316
0.081622
0.095507
0.111389
0.130128
0.163762
0.403439
0.401260
0.395355
0.385877
0.372624
0.355092
0.332571
0.304261
0.269432
0.227652
0.179108
0.124978
0.067764
0.011315
-0.039774
-0.081962
-0.113371
-0.133540
-0.142998
-0.142805
-0.134725
-0.120752
-0.102931
-0.083197
-0.063271
-0.044635
-0.028653
-0.016715
-0.009858
-0.008613
-0.012768
-0.021276
-0.032378
-0.043956
-0.054245
-0.061537
-0.065561
-0.066683
-0.065701
-0.063560
-0.061083
-0.058748
-0.056552
-0.053962
-0.050047
-0.043882
-0.035119
-0.024293
-0.012483
-0.000596
0.010423
0.020377
0.029146
0.036747
0.043265
0.048790
0.053412
0.057190
0.060115
0.062079
0.062862
0.062110
0.059406
0.054266
0.046250
0.035066
0.021477
0.007028
-0.006644
-0.018220
-0.027289
-0.034169
-0.039148
-0.042051
-0.042569
-0.040758
-0.037009
-0.031611
-0.024775
-0.017838
-0.010999
-0.004224
0.001950
0.007360
0.012027
0.016076
0.019766
0.023406
0.027369
0.032028
0.037723
0.044728
0.053168
0.063055
0.074297
0.086819
0.100644
0.115969
0.133274
0.162775
0.398214
0.395165
0.387891
0.377031
0.362553
0.344081
0.321098
0.293083
0.259642
0.220680
0.176614
0.128587
0.078603
0.029451
-0.015727
-0.054240
-0.084324
-0.105282
-0.117283
-0.120961
-0.117630
-0.108857
-0.096287
-0.081507
-0.065961
-0.050917
-0.037488
-0.026774
-0.019590
-0.016365
-0.016972
-0.020690
-0.026366
-0.033015
-0.038922
-0.043239
-0.045764
-0.046829
-0.047115
-0.047406
-0.048343
-0.050206
-0.052755
-0.055106
-0.055701
-0.052720
-0.045156
-0.033782
-0.020537
-0.007440
0.005193
0.016704
0.026891
0.035764
0.043423
0.049981
0.055529
0.060109
0.063713
0.066291
0.067759
0.067823
0.066163
0.061615
0.053742
0.042575
0.028293
0.012330
-0.003011
-0.015725
-0.025309
-0.032596
-0.038342
-0.042235
-0.043369
-0.041406
-0.037194
-0.031891
-0.025667
-0.018375
-0.011042
-0.003991
0.002488
0.008269
0.013348
0.017792
0.021835
0.025657
0.029640
0.034195
0.039763
0.046789
0.055409
0.065617
0.077132
0.089711
0.103179
0.117460
0.132527
0.153148
0.398666
0.393184
0.383793
0.371405
0.355850
0.336663
0.313375
0.285618
0.253182
0.216144
0.175011
0.130846
0.085325
0.040639
-0.000809
-0.036840
-0.065778
-0.087049
-0.100502
-0.106575
-0.106290
-0.100928
-0.091862
-0.080431
-0.067866
-0.055263
-0.043585
-0.033508
-0.025869
-0.021165
-0.019354
-0.019807
-0.022214
-0.025451
-0.028527
-0.030873
-0.032376
-0.033349
-0.034392
-0.036177
-0.039215
-0.043666
-0.049201
-0.054906
-0.059057
-0.059005
-0.052066
-0.040236
-0.026355
-0.011614
0.002498
0.015287
0.026549
0.036327
0.044757
0.051975
0.058073
0.063075
0.066963
0.069748
0.071681
0.072127
0.070363
0.066245
0.058897
0.047630
0.032376
0.014578
-0.002748
-0.016557
-0.025913
-0.032181
-0.036982
-0.040509
-0.041820
-0.040564
-0.036883
-0.031262
-0.024713
-0.017537
-0.010254
-0.003239
0.003266
0.009189
0.014536
0.019194
0.023262
0.027108
0.031048
0.035436
0.040672
0.047274
0.055954
0.066555
0.078362
0.090979
0.104075
0.117420
0.130705
0.145112
0.409264
0.394949
0.382465
0.368733
0.352376
0.332695
0.309222
0.281619
0.249747
0.213745
0.174135
0.131916
0.088587
0.046061
0.006411
-0.028490
-0.057318
-0.078888
-0.092936
-0.099994
-0.100979
-0.097050
-0.089462
-0.079457
-0.068184
-0.056676
-0.045849
-0.036493
-0.028895
-0.023476
-0.020620
-0.020368
-0.021686
-0.023724
-0.025772
-0.027366
-0.028423
-0.029235
-0.030348
-0.032369
-0.035741
-0.040561
-0.046441
-0.052439
-0.056969
-0.057877
-0.053518
-0.042501
-0.027628
-0.012083
0.002618
0.015850
0.027457
0.037509
0.046151
0.053522
0.059706
0.064713
0.068494
0.070989
0.071981
0.071848
0.070036
0.065912
0.058753
0.047946
0.033419
0.016307
-0.000836
-0.015126
-0.025202
-0.031787
-0.036268
-0.039214
-0.040367
-0.039141
-0.035621
-0.030289
-0.023879
-0.016888
-0.009773
-0.002899
0.003491
0.009269
0.014439
0.019149
0.023415
0.027460
0.031589
0.036155
0.041549
0.048220
0.056585
0.066875
0.078719
0.091312
0.104223
0.117251
0.130307
0.144266
