# vtk DataFile Version 3.0
Vector Field
ASCII
DATASET RECTILINEAR_GRID
DIMENSIONS 100 26 1
X_COORDINATES 100 double
0.050000 0.150000 0.250000 0.350000 0.450000 0.550000 0.650000 0.750000 0.850000 0.950000 1.050000 1.150000 1.250000 1.350000 1.450000 1.550000 1.650000 1.750000 1.850000 1.950000 2.050000 2.150000 2.250000 2.350000 2.450000 2.550000 2.650000 2.750000 2.850000 2.950000 3.050000 3.150000 3.250000 3.350000 3.450000 3.550000 3.650000 3.750000 3.850000 3.950000 4.050000 4.150000 4.250000 4.350000 4.450000 4.550000 4.650000 4.750000 4.850000 4.950000 5.050000 5.150000 5.250000 5.350000 5.450000 5.550000 5.650000 5.750000 5.850000 5.950000 6.050000 6.150000 6.250000 6.350000 6.450000 6.550000 6.650000 6.750000 6.850000 6.950000 7.050000 7.150000 7.250000 7.350000 7.450000 7.550000 7.650000 7.750000 7.850000 7.950000 8.050000 8.150000 8.250000 8.350000 8.450000 8.550000 8.650000 8.750000 8.850000 8.950000 9.050000 9.150000 9.250000 9.350000 9.450000 9.550000 9.650000 9.750000 9.850000 9.950000 
Y_COORDINATES 26 double
0.050000 0.150000 0.250000 0.350000 0.450000 0.550000 0.650000 0.750000 0.850000 0.950000 1.050000 1.150000 1.250000 1.350000 1.450000 1.550000 1.650000 1.750000 1.850000 1.950000 2.050000 2.150000 2.250000 2.350000 2.450000 2.550000 
Z_COORDINATES 1 double
0.0
POINT_DATA 2600
VECTORS Vektorfeld double
1.000771 -0.000771 0.0
1.004303 -0.002760 0.0
1.011962 -0.004899 0.0
1.023937 -0.007077 0.0
1.040226 -0.009211 0.0
1.060633 -0.011195 0.0
1.084713 -0.012885 0.0
1.111715 -0.014116 0.0
1.140565 -0.014735 0.0
1.169959 -0.014659 0.0
1.198552 -0.013934 0.0
1.225207 -0.012720 0.0
1.249160 -0.011233 0.0
1.270076 -0.009684 0.0
1.288004 -0.008245 0.0
1.303274 -0.007025 0.0
1.316369 -0.006070 0.0
1.327790 -0.005352 0.0
1.337919 -0.004777 0.0
1.346893 -0.004196 0.0
1.354515 -0.003425 0.0
1.360235 -0.002295 0.0
1.363240 -0.000709 0.0
1.362595 0.001354 0.0
1.357415 0.003826 0.0
1.347033 0.006555 0.0
1.331125 0.009352 0.0
1.309742 0.012030 0.0
1.283281 0.014431 0.0
1.252418 0.016433 0.0
1.218027 0.017958 0.0
1.181109 0.018960 0.0
1.142730 0.019419 0.0
1.103981 0.019331 0.0
1.065950 0.018700 0.0
1.029712 0.017537 0.0
0.996326 0.015849 0.0
0.966839 0.013638 0.0
0.942310 0.010891 0.0
0.923856 0.007563 0.0
0.912684 0.003609 0.0
0.909946 -0.000870 0.0
0.916333 -0.005517 0.0
0.931959 -0.010108 0.0
0.956477 -0.014409 0.0
0.989004 -0.018118 0.0
1.027994 -0.020872 0.0
1.071166 -0.022300 0.0
1.115539 -0.022072 0.0
1.157609 -0.019998 0.0
1.193743 -0.016136 0.0
1.220771 -0.010891 0.0
1.236656 -0.004994 0.0
1.240857 0.000792 0.0
1.233901 0.006165 0.0
1.216822 0.010914 0.0
1.191032 0.014875 0.0
1.158209 0.017948 0.0
1.120161 0.020100 0.0
1.078718 0.021343 0.0
1.035658 0.021717 0.0
0.992676 0.021264 0.0
0.951399 0.020013 0.0
0.913401 0.017984 0.0
0.880204 0.015213 0.0
0.853196 0.011795 0.0
0.833481 0.007920 0.0
0.821678 0.003882 0.0
0.817707 0.000089 0.0
0.820596 -0.002978 0.0
0.828899 -0.005324 0.0
0.841383 -0.007160 0.0
0.857247 -0.008705 0.0
0.876101 -0.010149 0.0
0.897875 -0.011625 0.0
0.922691 -0.013192 0.0
0.950700 -0.014817 0.0
0.981883 -0.016367 0.0
1.015868 -0.017618 0.0
1.051769 -0.018283 0.0
1.088093 -0.018041 0.0
1.122731 -0.016597 0.0
1.153086 -0.013758 0.0
1.176412 -0.009568 0.0
1.190394 -0.004414 0.0
1.193737 0.001070 0.0
1.186180 0.006487 0.0
1.168077 0.011616 0.0
1.140303 0.016158 0.0
1.104402 0.019743 0.0
1.062705 0.021954 0.0
1.018353 0.022397 0.0
0.975110 0.020846 0.0
0.936845 0.017420 0.0
0.906760 0.012665 0.0
0.886661 0.007434 0.0
0.876534 0.002693 0.0
0.874449 -0.000608 0.0
0.876909 -0.001851 0.0
0.877915 0.000844 0.0
1.001320 -0.002863 0.0
1.006253 -0.009134 0.0
1.015721 -0.015652 0.0
1.029672 -0.022251 0.0
1.048079 -0.028733 0.0
1.070791 -0.034792 0.0
1.097415 -0.039993 0.0
1.127210 -0.043804 0.0
1.159028 -0.045715 0.0
1.191384 -0.045428 0.0
1.222711 -0.043086 0.0
1.251716 -0.039228 0.0
1.277597 -0.034559 0.0
1.300073 -0.029750 0.0
1.319296 -0.025330 0.0
1.335721 -0.021635 0.0
1.349963 -0.018798 0.0
1.362659 -0.016740 0.0
1.374318 -0.015177 0.0
1.385181 -0.013634 0.0
1.395102 -0.011529 0.0
1.403490 -0.008300 0.0
1.409366 -0.003585 0.0
1.411551 0.002689 0.0
1.408957 0.010266 0.0
1.400815 0.018640 0.0
1.386779 0.027211 0.0
1.366938 0.035395 0.0
1.341762 0.042703 0.0
1.312010 0.048776 0.0
1.278634 0.053382 0.0
1.242695 0.056392 0.0
1.205305 0.057756 0.0
1.167579 0.057468 0.0
1.130623 0.055550 0.0
1.095515 0.052033 0.0
1.063305 0.046949 0.0
1.035009 0.040322 0.0
1.011577 0.032166 0.0
0.993835 0.022484 0.0
0.982382 0.011313 0.0
0.977670 -0.001125 0.0
0.980367 -0.014347 0.0
0.991305 -0.027842 0.0
1.010963 -0.040851 0.0
1.039140 -0.052380 0.0
1.074865 -0.061325 0.0
1.116419 -0.066574 0.0
1.161362 -0.067114 0.0
1.206565 -0.062229 0.0
1.248363 -0.051837 0.0
1.282976 -0.036831 0.0
1.307168 -0.019132 0.0
1.319007 -0.001110 0.0
1.318394 0.015636 0.0
1.306554 0.030361 0.0
1.285190 0.042582 0.0
1.256216 0.052039 0.0
1.221610 0.058663 0.0
1.183313 0.062520 0.0
1.143171 0.063743 0.0
1.102909 0.062481 0.0
1.064121 0.058863 0.0
1.028226 0.053027 0.0
0.996400 0.045194 0.0
0.969442 0.035779 0.0
0.947654 0.025440 0.0
0.930811 0.015009 0.0
0.918404 0.005341 0.0
0.910162 -0.002878 0.0
0.905971 -0.009535 0.0
0.905536 -0.014996 0.0
0.908571 -0.019768 0.0
0.914977 -0.024346 0.0
0.924902 -0.029127 0.0
0.938711 -0.034315 0.0
0.956843 -0.039834 0.0
0.979603 -0.045294 0.0
1.006961 -0.050034 0.0
1.038411 -0.053218 0.0
1.072923 -0.053942 0.0
1.108958 -0.051369 0.0
1.144502 -0.044886 0.0
1.177082 -0.034346 0.0
1.203784 -0.020319 0.0
1.221600 -0.004184 0.0
1.228676 0.012222 0.0
1.225035 0.027625 0.0
1.211817 0.041143 0.0
1.190702 0.051774 0.0
1.163839 0.058483 0.0
1.133689 0.060370 0.0
1.102797 0.057009 0.0
1.073500 0.048820 0.0
1.047630 0.037219 0.0
1.026255 0.024353 0.0
1.009585 0.012571 0.0
0.997234 0.003949 0.0
0.988503 -0.000136 0.0
0.981929 0.004697 0.0
1.001207 -0.005389 0.0
1.005957 -0.016290 0.0
1.015386 -0.027392 0.0
1.029556 -0.038634 0.0
1.048583 -0.049784 0.0
1.072496 -0.060366 0.0
1.101069 -0.069616 0.0
1.133610 -0.076515 0.0
1.168803 -0.080016 0.0
1.204679 -0.079359 0.0
1.239041 -0.074845 0.0
1.270188 -0.067620 0.0
1.297223 -0.059083 0.0
1.319996 -0.050476 0.0
1.338896 -0.042727 0.0
1.354649 -0.036415 0.0
1.368152 -0.031763 0.0
1.380322 -0.028640 0.0
1.391930 -0.026544 0.0
1.403415 -0.024616 0.0
1.414688 -0.021740 0.0
1.425005 -0.016795 0.0
1.433058 -0.009018 0.0
1.437303 0.001692 0.0
1.436362 0.014798 0.0
1.429288 0.029324 0.0
1.415703 0.044148 0.0
1.395784 0.058219 0.0
1.370146 0.070693 0.0
1.339708 0.080978 0.0
1.305548 0.088716 0.0
1.268808 0.093735 0.0
1.230626 0.095985 0.0
1.192099 0.095491 0.0
1.154269 0.092314 0.0
1.118113 0.086533 0.0
1.084541 0.078230 0.0
1.054392 0.067487 0.0
1.028435 0.054389 0.0
1.007411 0.039028 0.0
0.992125 0.021508 0.0
0.983544 0.001973 0.0
0.982671 -0.019269 0.0
0.990223 -0.041410 0.0
1.006368 -0.063085 0.0
1.030716 -0.082671 0.0
1.062518 -0.098561 0.0
1.100802 -0.109175 0.0
1.144237 -0.112891 0.0
1.190783 -0.108202 0.0
1.237360 -0.094239 0.0
1.279821 -0.071502 0.0
1.313535 -0.042367 0.0
1.334686 -0.010865 0.0
1.341920 0.018771 0.0
1.336385 0.044601 0.0
1.320215 0.065876 0.0
1.295677 0.082257 0.0
1.264995 0.093732 0.0
1.230235 0.100508 0.0
1.193231 0.102901 0.0
1.155567 0.101249 0.0
1.118558 0.095892 0.0
1.083237 0.087213 0.0
1.050335 0.075736 0.0
1.020302 0.062229 0.0
0.993378 0.047703 0.0
0.969709 0.033257 0.0
0.949400 0.019808 0.0
0.932445 0.007850 0.0
0.918776 -0.002403 0.0
0.908282 -0.011198 0.0
0.900864 -0.019183 0.0
0.896686 -0.027159 0.0
0.896286 -0.035839 0.0
0.900480 -0.045606 0.0
0.910103 -0.056297 0.0
0.925689 -0.067176 0.0
0.947260 -0.077080 0.0
0.974280 -0.084641 0.0
1.005733 -0.088484 0.0
1.040244 -0.087372 0.0
1.076172 -0.080355 0.0
1.111667 -0.066953 0.0
1.144678 -0.047425 0.0
1.172906 -0.023122 0.0
1.193778 0.003212 0.0
1.205673 0.028381 0.0
1.208711 0.050568 0.0
1.203890 0.068285 0.0
1.192574 0.080152 0.0
1.176294 0.085130 0.0
1.156558 0.082877 0.0
1.134726 0.074081 0.0
1.112014 0.060539 0.0
1.089578 0.044844 0.0
1.068549 0.029780 0.0
1.049890 0.017749 0.0
1.034159 0.010525 0.0
1.022271 0.012499 0.0
1.001156 -0.007753 0.0
1.005781 -0.023301 0.0
1.015119 -0.039147 0.0
1.029440 -0.055370 0.0
1.049140 -0.071774 0.0
1.074608 -0.087757 0.0
1.105986 -0.102176 0.0
1.142789 -0.113299 0.0
1.183552 -0.119188 0.0
1.225330 -0.117841 0.0
1.264549 -0.109946 0.0
1.298764 -0.097880 0.0
1.327064 -0.084158 0.0
1.349652 -0.070762 0.0
1.367367 -0.059056 0.0
1.381383 -0.049855 0.0
1.393030 -0.043474 0.0
1.403669 -0.039737 0.0
1.414529 -0.037914 0.0
1.426458 -0.036661 0.0
1.439585 -0.034095 0.0
1.453009 -0.028183 0.0
1.464789 -0.017463 0.0
1.472456 -0.001775 0.0
1.473886 0.017777 0.0
1.467801 0.039504 0.0
1.453806 0.061547 0.0
1.432293 0.082253 0.0
1.404210 0.100380 0.0
1.370810 0.115129 0.0
1.333453 0.126081 0.0
1.293482 0.133083 0.0
1.252146 0.136155 0.0
1.210588 0.135406 0.0
1.169835 0.130982 0.0
1.130816 0.123041 0.0
1.094372 0.111738 0.0
1.061279 0.097221 0.0
1.032276 0.079614 0.0
1.008113 0.058991 0.0
0.989585 0.035359 0.0
0.977481 0.008807 0.0
0.972373 -0.020121 0.0
0.974352 -0.050089 0.0
0.983064 -0.079263 0.0
0.998113 -0.105890 0.0
1.019525 -0.128556 0.0
1.047803 -0.145742 0.0
1.083407 -0.155363 0.0
1.126009 -0.154878 0.0
1.173892 -0.142023 0.0
1.223632 -0.115918 0.0
1.270111 -0.078144 0.0
1.307182 -0.033311 0.0
1.329653 0.011512 0.0
1.336363 0.050685 0.0
1.329520 0.082806 0.0
1.311914 0.107472 0.0
1.286307 0.124805 0.0
1.255224 0.135279 0.0
1.220824 0.139533 0.0
1.184855 0.138250 0.0
1.148639 0.132116 0.0
1.113110 0.121840 0.0
1.078879 0.108240 0.0
1.046344 0.092293 0.0
1.015796 0.075112 0.0
0.987480 0.057834 0.0
0.961560 0.041461 0.0
0.938029 0.026683 0.0
0.916724 0.013739 0.0
0.897549 0.002329 0.0
0.880753 -0.008497 0.0
0.867137 -0.020051 0.0
0.857998 -0.033408 0.0
0.854742 -0.048976 0.0
0.858411 -0.066219 0.0
0.869357 -0.083787 0.0
0.887224 -0.099908 0.0
0.911144 -0.112753 0.0
0.939962 -0.120643 0.0
0.972391 -0.122152 0.0
1.007085 -0.116197 0.0
1.042659 -0.102180 0.0
1.077663 -0.080214 0.0
1.110521 -0.051419 0.0
1.139374 -0.018216 0.0
1.161953 0.015334 0.0
1.176980 0.045549 0.0
1.184669 0.070435 0.0
1.185624 0.088362 0.0
1.180606 0.098217 0.0
1.170426 0.099706 0.0
1.155936 0.093575 0.0
1.138102 0.081591 0.0
1.118092 0.066239 0.0
1.097263 0.050244 0.0
1.077038 0.036169 0.0
1.058762 0.026111 0.0
1.044451 0.023111 0.0
1.001086 -0.009995 0.0
1.005463 -0.030060 0.0
1.014436 -0.050700 0.0
1.028533 -0.072235 0.0
1.048570 -0.094645 0.0
1.075537 -0.117322 0.0
1.110318 -0.138770 0.0
1.153026 -0.156217 0.0
1.202449 -0.166454 0.0
1.253596 -0.163500 0.0
1.299675 -0.149584 0.0
1.337176 -0.129956 0.0
1.365717 -0.108923 0.0
1.386409 -0.089276 0.0
1.400872 -0.072720 0.0
1.410896 -0.060231 0.0
1.418349 -0.052199 0.0
1.425148 -0.048452 0.0
1.433196 -0.048107 0.0
1.444112 -0.049312 0.0
1.458667 -0.049125 0.0
1.476093 -0.044002 0.0
1.493716 -0.031047 0.0
1.507450 -0.009592 0.0
1.513518 0.018096 0.0
1.509882 0.048905 0.0
1.496160 0.079861 0.0
1.473112 0.108500 0.0
1.442194 0.133135 0.0
1.405146 0.152823 0.0
1.363710 0.167179 0.0
1.319490 0.176176 0.0
1.273904 0.179983 0.0
1.228183 0.178857 0.0
1.183395 0.173071 0.0
1.140480 0.162887 0.0
1.100281 0.148536 0.0
1.063574 0.130223 0.0
1.031074 0.108114 0.0
1.003403 0.082326 0.0
0.980965 0.052989 0.0
0.963764 0.020482 0.0
0.951291 -0.014214 0.0
0.942783 -0.049469 0.0
0.937735 -0.083549 0.0
0.936592 -0.115510 0.0
0.941218 -0.144973 0.0
0.954281 -0.170667 0.0
0.977913 -0.189675 0.0
1.012730 -0.197984 0.0
1.057611 -0.191681 0.0
1.109840 -0.168230 0.0
1.165175 -0.127646 0.0
1.217769 -0.073475 0.0
1.260339 -0.013365 0.0
1.287081 0.042110 0.0
1.297355 0.087951 0.0
1.293802 0.123486 0.0
1.279296 0.148903 0.0
1.256623 0.164939 0.0
1.228277 0.172617 0.0
1.196351 0.173061 0.0
1.162480 0.167393 0.0
1.127850 0.156721 0.0
1.093278 0.142162 0.0
1.059309 0.124876 0.0
1.026308 0.106078 0.0
0.994482 0.087009 0.0
0.963856 0.068833 0.0
0.934304 0.052394 0.0
0.905776 0.037861 0.0
0.878673 0.024485 0.0
0.854108 0.010707 0.0
0.833733 -0.005264 0.0
0.819339 -0.024662 0.0
0.812366 -0.047493 0.0
0.813421 -0.072425 0.0
0.822213 -0.097319 0.0
0.837867 -0.119896 0.0
0.859278 -0.138095 0.0
0.885329 -0.150170 0.0
0.914964 -0.154690 0.0
0.947179 -0.150570 0.0
0.980989 -0.137190 0.0
1.015381 -0.114600 0.0
1.049255 -0.083765 0.0
1.081327 -0.046795 0.0
1.109858 -0.007196 0.0
1.132847 0.030064 0.0
1.149307 0.061771 0.0
1.159284 0.086094 0.0
1.162982 0.101805 0.0
1.160750 0.108531 0.0
1.153103 0.106887 0.0
1.140799 0.098417 0.0
1.124886 0.085337 0.0
1.106678 0.070183 0.0
1.087687 0.055447 0.0
1.069540 0.043255 0.0
1.054656 0.035162 0.0
1.000948 -0.012029 0.0
1.004797 -0.036252 0.0
1.012827 -0.061512 0.0
1.025846 -0.088539 0.0
1.045198 -0.117728 0.0
1.072772 -0.148780 0.0
1.110796 -0.180117 0.0
1.160850 -0.207632 0.0
1.223727 -0.227338 0.0
1.289373 -0.219411 0.0
1.343155 -0.193535 0.0
1.381407 -0.161757 0.0
1.406313 -0.130570 0.0
1.420990 -0.102999 0.0
1.428156 -0.080626 0.0
1.430188 -0.064381 0.0
1.429345 -0.054658 0.0
1.427973 -0.051420 0.0
1.428710 -0.053924 0.0
1.434371 -0.060071 0.0
1.447157 -0.065708 0.0
1.467338 -0.065026 0.0
1.492219 -0.052527 0.0
1.515921 -0.025547 0.0
1.531218 0.012687 0.0
1.533800 0.055368 0.0
1.523260 0.097662 0.0
1.500982 0.136025 0.0
1.469167 0.168343 0.0
1.430156 0.193674 0.0
1.386092 0.211828 0.0
1.338819 0.223020 0.0
1.289891 0.227653 0.0
1.240620 0.226179 0.0
1.192133 0.219024 0.0
1.145423 0.206560 0.0
1.101389 0.189096 0.0
1.060854 0.166904 0.0
1.024517 0.140270 0.0
0.992754 0.109605 0.0
0.965269 0.075632 0.0
0.940759 0.039548 0.0
0.917093 0.002859 0.0
0.892586 -0.033526 0.0
0.867872 -0.069728 0.0
0.846522 -0.106837 0.0
0.833857 -0.145606 0.0
0.834390 -0.183629 0.0
0.849840 -0.215795 0.0
0.879419 -0.236260 0.0
0.921053 -0.239920 0.0
0.972129 -0.223297 0.0
1.029538 -0.185322 0.0
1.089313 -0.128168 0.0
1.146106 -0.058034 0.0
1.192334 0.013809 0.0
1.222739 0.075572 0.0
1.237576 0.124581 0.0
1.239092 0.160798 0.0
1.229771 0.185038 0.0
1.212052 0.198583 0.0
1.188144 0.202928 0.0
1.159924 0.199618 0.0
1.128885 0.190165 0.0
1.096152 0.176023 0.0
1.062525 0.158611 0.0
1.028505 0.139364 0.0
0.994300 0.119753 0.0
0.959878 0.101137 0.0
0.925192 0.084326 0.0
0.890623 0.069026 0.0
0.857405 0.053641 0.0
0.827667 0.035855 0.0
0.803867 0.013764 0.0
0.787812 -0.013242 0.0
0.780144 -0.044272 0.0
0.780548 -0.077105 0.0
0.788132 -0.109015 0.0
0.801796 -0.137518 0.0
0.820490 -0.160578 0.0
0.843305 -0.176553 0.0
0.869468 -0.184105 0.0
0.898299 -0.182201 0.0
0.929150 -0.170220 0.0
0.961341 -0.148153 0.0
0.994097 -0.116842 0.0
1.026484 -0.078176 0.0
1.057312 -0.035173 0.0
1.084698 0.007665 0.0
1.106877 0.045530 0.0
1.123163 0.076073 0.0
1.133379 0.097911 0.0
1.137540 0.110496 0.0
1.135901 0.114208 0.0
1.129004 0.110296 0.0
1.117711 0.100665 0.0
1.103184 0.087590 0.0
1.086855 0.073360 0.0
1.070381 0.059963 0.0
1.056176 0.047544 0.0
1.000704 -0.013681 0.0
1.003585 -0.041329 0.0
1.009744 -0.070625 0.0
1.020201 -0.102903 0.0
1.036816 -0.139332 0.0
1.062590 -0.180525 0.0
1.101896 -0.225704 0.0
1.159480 -0.269684 0.0
1.243447 -0.312130 0.0
1.329669 -0.286487 0.0
1.385781 -0.236353 0.0
1.415171 -0.186581 0.0
1.427584 -0.143065 0.0
1.429158 -0.106754 0.0
1.423247 -0.078126 0.0
1.412172 -0.057838 0.0
1.397906 -0.046092 0.0
1.382487 -0.043194 0.0
1.368778 -0.049178 0.0
1.360943 -0.062644 0.0
1.363633 -0.078612 0.0
1.379691 -0.088362 0.0
1.408492 -0.082874 0.0
1.444717 -0.055128 0.0
1.477071 -0.005382 0.0
1.494732 0.053192 0.0
1.495056 0.110054 0.0
1.480587 0.160379 0.0
1.454534 0.201857 0.0
1.419840 0.233865 0.0
1.378914 0.256627 0.0
1.333687 0.270721 0.0
1.285744 0.276824 0.0
1.236437 0.275587 0.0
1.186958 0.267581 0.0
1.138398 0.253272 0.0
1.091780 0.233036 0.0
1.048049 0.207229 0.0
1.007924 0.176406 0.0
0.971449 0.141707 0.0
0.937292 0.105173 0.0
0.902428 0.069381 0.0
0.863260 0.035861 0.0
0.818508 0.002731 0.0
0.772833 -0.035596 0.0
0.736436 -0.083224 0.0
0.717697 -0.137816 0.0
0.718006 -0.192262 0.0
0.734307 -0.238914 0.0
0.763067 -0.271479 0.0
0.801822 -0.285090 0.0
0.848914 -0.276295 0.0
0.902765 -0.243583 0.0
0.961281 -0.188198 0.0
1.021351 -0.114867 0.0
1.078094 -0.032328 0.0
1.124318 0.045079 0.0
1.155936 0.108619 0.0
1.173724 0.157456 0.0
1.179274 0.192150 0.0
1.174478 0.213987 0.0
1.161270 0.224639 0.0
1.141466 0.225931 0.0
1.116657 0.219700 0.0
1.088150 0.207727 0.0
1.056933 0.191750 0.0
1.023648 0.173531 0.0
0.988601 0.154839 0.0
0.951936 0.137139 0.0
0.914030 0.120916 0.0
0.875995 0.105040 0.0
0.839909 0.086930 0.0
0.808448 0.063766 0.0
0.784028 0.034072 0.0
0.768016 -0.001484 0.0
0.760413 -0.040759 0.0
0.760307 -0.080916 0.0
0.766549 -0.119028 0.0
0.778043 -0.152664 0.0
0.793864 -0.179947 0.0
0.813270 -0.199405 0.0
0.835696 -0.209842 0.0
0.860703 -0.210302 0.0
0.887909 -0.200175 0.0
0.916910 -0.179388 0.0
0.947196 -0.148650 0.0
0.978087 -0.109646 0.0
1.008660 -0.065104 0.0
1.037626 -0.018755 0.0
1.063057 0.024341 0.0
1.083467 0.060567 0.0
1.098352 0.088317 0.0
1.107469 0.106812 0.0
1.110844 0.116155 0.0
1.108812 0.117277 0.0
1.102026 0.111763 0.0
1.091459 0.101586 0.0
1.078387 0.088763 0.0
1.064366 0.075055 0.0
1.051610 0.059413 0.0
1.000328 -0.014713 0.0
1.001685 -0.044534 0.0
1.004750 -0.076644 0.0
1.010527 -0.113118 0.0
1.021078 -0.156283 0.0
1.040299 -0.208568 0.0
1.075202 -0.271871 0.0
1.136401 -0.342299 0.0
1.251179 -0.438260 0.0
1.358548 -0.353948 0.0
1.394052 -0.260509 0.0
1.393306 -0.191070 0.0
1.379903 -0.137586 0.0
1.360703 -0.094606 0.0
1.337073 -0.060734 0.0
1.309737 -0.036818 0.0
1.279207 -0.022316 0.0
1.245541 -0.017886 0.0
1.209906 -0.025142 0.0
1.176950 -0.045889 0.0
1.155222 -0.076328 0.0
1.152825 -0.104307 0.0
1.174257 -0.117161 0.0
1.218510 -0.101319 0.0
1.275605 -0.048639 0.0
1.324876 0.029517 0.0
1.352877 0.105404 0.0
1.361747 0.170629 0.0
1.356005 0.223401 0.0
1.339049 0.263972 0.0
1.313282 0.293215 0.0
1.280534 0.312108 0.0
1.242357 0.321556 0.0
1.200173 0.322347 0.0
1.155328 0.315145 0.0
1.109114 0.300482 0.0
1.062783 0.278775 0.0
1.017513 0.250492 0.0
0.973992 0.216789 0.0
0.931136 0.180655 0.0
0.884644 0.146874 0.0
0.828777 0.118411 0.0
0.763316 0.091459 0.0
0.698873 0.056328 0.0
0.650600 0.004755 0.0
0.626379 -0.062957 0.0
0.623624 -0.136588 0.0
0.635323 -0.205498 0.0
0.656083 -0.262739 0.0
0.683456 -0.303787 0.0
0.716926 -0.325007 0.0
0.756733 -0.323278 0.0
0.802965 -0.296684 0.0
0.854987 -0.245634 0.0
0.911181 -0.173695 0.0
0.968758 -0.087821 0.0
1.022362 0.000744 0.0
1.065811 0.077888 0.0
1.096637 0.139573 0.0
1.115344 0.185776 0.0
1.122991 0.217510 0.0
1.120939 0.236377 0.0
1.110655 0.244281 0.0
1.093572 0.243243 0.0
1.070966 0.235297 0.0
1.043865 0.222497 0.0
1.012994 0.206941 0.0
0.978832 0.190637 0.0
0.941888 0.174950 0.0
0.903158 0.159742 0.0
0.864493 0.142914 0.0
0.828502 0.121133 0.0
0.797876 0.091651 0.0
0.774542 0.053941 0.0
0.759245 0.009956 0.0
0.751656 -0.037007 0.0
0.750813 -0.083721 0.0
0.755616 -0.127267 0.0
0.765046 -0.165350 0.0
0.778234 -0.196269 0.0
0.794493 -0.218748 0.0
0.813343 -0.231775 0.0
0.834494 -0.234527 0.0
0.857774 -0.226436 0.0
0.883021 -0.207374 0.0
0.909976 -0.177905 0.0
0.938190 -0.139496 0.0
0.966969 -0.094607 0.0
0.995336 -0.046586 0.0
1.021758 0.000318 0.0
1.044482 0.041455 0.0
1.062434 0.074591 0.0
1.075164 0.098691 0.0
1.082499 0.113565 0.0
1.084574 0.119825 0.0
1.081838 0.118736 0.0
1.075064 0.111954 0.0
1.065347 0.101184 0.0
1.054080 0.087922 0.0
1.043191 0.070191 0.0
0.999823 -0.014864 0.0
0.999110 -0.045027 0.0
0.997820 -0.077926 0.0
0.996518 -0.116311 0.0
0.996675 -0.163799 0.0
1.001805 -0.225404 0.0
1.020153 -0.308286 0.0
1.069761 -0.416691 0.0
1.214314 -0.623200 0.0
1.317879 -0.379942 0.0
1.279253 -0.231393 0.0
1.218812 -0.158999 0.0
1.170118 -0.107560 0.0
1.129114 -0.064427 0.0
1.090099 -0.028268 0.0
1.047189 0.000961 0.0
0.997425 0.020199 0.0
0.942013 0.028677 0.0
0.882337 0.023606 0.0
0.820969 -0.000313 0.0
0.767771 -0.046979 0.0
0.743357 -0.106845 0.0
0.762295 -0.154993 0.0
0.820608 -0.166053 0.0
0.904748 -0.125140 0.0
0.997573 -0.036079 0.0
1.074754 0.065817 0.0
1.125730 0.150370 0.0
1.157312 0.217819 0.0
1.173515 0.270308 0.0
1.176575 0.309586 0.0
1.168131 0.336927 0.0
1.149735 0.353309 0.0
1.122967 0.359546 0.0
1.089416 0.356343 0.0
1.050600 0.344313 0.0
1.007815 0.324061 0.0
0.961575 0.296717 0.0
0.910391 0.265270 0.0
0.850149 0.235273 0.0
0.777602 0.211294 0.0
0.697752 0.189709 0.0
0.625934 0.157440 0.0
0.578162 0.102563 0.0
0.559531 0.025423 0.0
0.562922 -0.062795 0.0
0.577677 -0.148748 0.0
0.597098 -0.224458 0.0
0.618616 -0.286056 0.0
0.641878 -0.331104 0.0
0.667830 -0.357112 0.0
0.698081 -0.361231 0.0
0.734129 -0.341011 0.0
0.776631 -0.295830 0.0
0.825038 -0.228101 0.0
0.877602 -0.143556 0.0
0.931283 -0.050807 0.0
0.980235 0.037036 0.0
1.019519 0.110314 0.0
1.048046 0.167802 0.0
1.065920 0.209964 0.0
1.073792 0.238103 0.0
1.072624 0.254007 0.0
1.063504 0.259720 0.0
1.047503 0.257428 0.0
1.025546 0.249423 0.0
0.998378 0.238053 0.0
0.966676 0.225388 0.0
0.931379 0.212440 0.0
0.894074 0.198287 0.0
0.857125 0.179982 0.0
0.823277 0.153903 0.0
0.794892 0.117892 0.0
0.773351 0.072574 0.0
0.758994 0.020976 0.0
0.751446 -0.032889 0.0
0.749945 -0.085495 0.0
0.753568 -0.133918 0.0
0.761371 -0.175933 0.0
0.772470 -0.209973 0.0
0.786134 -0.234967 0.0
0.801867 -0.250140 0.0
0.819434 -0.254881 0.0
0.838809 -0.248738 0.0
0.860052 -0.231563 0.0
0.883154 -0.203773 0.0
0.907913 -0.166601 0.0
0.933854 -0.122221 0.0
0.960198 -0.073682 0.0
0.985856 -0.024665 0.0
1.009194 0.020377 0.0
1.028755 0.058155 0.0
1.043834 0.087319 0.0
1.054064 0.107373 0.0
1.059389 0.118618 0.0
1.060068 0.122000 0.0
1.056681 0.118851 0.0
1.050134 0.110552 0.0
1.041633 0.098322 0.0
1.032799 0.079513 0.0
0.999246 -0.013933 0.0
0.996143 -0.042143 0.0
0.989693 -0.073070 0.0
0.979538 -0.109710 0.0
0.965391 -0.156409 0.0
0.947690 -0.220223 0.0
0.929874 -0.313998 0.0
0.926846 -0.457558 0.0
1.024632 -0.824671 0.0
1.032250 -0.187320 0.0
0.858510 -0.099035 0.0
0.727375 -0.089498 0.0
0.660636 -0.061627 0.0
0.610219 -0.018940 0.0
0.545221 0.030258 0.0
0.461897 0.068668 0.0
0.373612 0.090542 0.0
0.292601 0.094756 0.0
0.231616 0.078189 0.0
0.203027 0.035062 0.0
0.213467 -0.039597 0.0
0.257773 -0.134119 0.0
0.327410 -0.216294 0.0
0.417444 -0.253099 0.0
0.521626 -0.226417 0.0
0.634535 -0.140536 0.0
0.747051 -0.019422 0.0
0.840635 0.091049 0.0
0.909634 0.176559 0.0
0.960605 0.244394 0.0
0.995363 0.297683 0.0
1.014852 0.337785 0.0
1.020201 0.365499 0.0
1.012816 0.381508 0.0
0.994231 0.386518 0.0
0.965847 0.381337 0.0
0.928430 0.367239 0.0
0.881208 0.347000 0.0
0.821650 0.325729 0.0
0.748596 0.308110 0.0
0.668465 0.291135 0.0
0.596864 0.261319 0.0
0.549568 0.204943 0.0
0.531354 0.121046 0.0
0.535598 0.021326 0.0
0.552125 -0.078617 0.0
0.573282 -0.168838 0.0
0.594961 -0.245468 0.0
0.615319 -0.306922 0.0
0.634083 -0.352265 0.0
0.652359 -0.380181 0.0
0.672388 -0.388442 0.0
0.696845 -0.374306 0.0
0.727809 -0.336000 0.0
0.765932 -0.274462 0.0
0.810287 -0.194113 0.0
0.858667 -0.102310 0.0
0.907164 -0.008908 0.0
0.950416 0.073723 0.0
0.984999 0.141283 0.0
1.010148 0.193459 0.0
1.025814 0.231069 0.0
1.032399 0.255624 0.0
1.030561 0.269061 0.0
1.021052 0.273598 0.0
1.004609 0.271653 0.0
0.981946 0.265656 0.0
0.953921 0.257512 0.0
0.921851 0.247683 0.0
0.887744 0.234456 0.0
0.854169 0.214337 0.0
0.823693 0.183872 0.0
0.798234 0.141768 0.0
0.778764 0.089708 0.0
0.765492 0.031471 0.0
0.758188 -0.028531 0.0
0.756346 -0.086510 0.0
0.759232 -0.139412 0.0
0.765955 -0.184965 0.0
0.775585 -0.221670 0.0
0.787294 -0.248643 0.0
0.800494 -0.265395 0.0
0.814919 -0.271618 0.0
0.830617 -0.267074 0.0
0.847826 -0.251677 0.0
0.866790 -0.225725 0.0
0.887577 -0.190196 0.0
0.909961 -0.146950 0.0
0.933380 -0.098717 0.0
0.956963 -0.048872 0.0
0.979438 -0.001228 0.0
0.999331 0.040306 0.0
1.015591 0.073829 0.0
1.027685 0.098539 0.0
1.035386 0.114427 0.0
1.038776 0.122122 0.0
1.038257 0.122635 0.0
1.034550 0.117023 0.0
1.028668 0.106234 0.0
1.021926 0.087178 0.0
0.998702 -0.011880 0.0
0.993344 -0.035735 0.0
0.981967 -0.061650 0.0
0.963108 -0.092117 0.0
0.934068 -0.130815 0.0
0.889878 -0.183925 0.0
0.820729 -0.263330 0.0
0.708573 -0.393042 0.0
0.319438 -0.700171 0.0
-0.472813 0.240739 0.0
-0.472813 0.000000 0.0
-0.033536 -0.023558 0.0
-0.067936 -0.036408 0.0
-0.050119 -0.011560 0.0
-0.006776 0.044533 0.0
0.019830 0.111110 0.0
0.007555 0.148660 0.0
-0.024247 0.149452 0.0
-0.054282 0.114512 0.0
-0.069187 0.042232 0.0
-0.061868 -0.064527 0.0
-0.030307 -0.185055 0.0
0.024444 -0.289746 0.0
0.102483 -0.347720 0.0
0.201333 -0.334828 0.0
0.313730 -0.257429 0.0
0.436427 -0.137741 0.0
0.558770 -0.006560 0.0
0.661786 0.102153 0.0
0.741885 0.187730 0.0
0.803671 0.257803 0.0
0.847851 0.313997 0.0
0.875047 0.356741 0.0
0.886240 0.386457 0.0
0.882542 0.403853 0.0
0.864754 0.410174 0.0
0.832736 0.407836 0.0
0.785314 0.401047 0.0
0.722554 0.393999 0.0
0.650646 0.384801 0.0
0.583982 0.361240 0.0
0.538342 0.308454 0.0
0.520368 0.223078 0.0
0.525447 0.116046 0.0
0.544431 0.003098 0.0
0.569325 -0.101810 0.0
0.594994 -0.192471 0.0
0.618593 -0.267113 0.0
0.638473 -0.325515 0.0
0.654069 -0.368031 0.0
0.666116 -0.394739 0.0
0.676820 -0.404617 0.0
0.689541 -0.395309 0.0
0.707750 -0.364169 0.0
0.733678 -0.310344 0.0
0.767543 -0.236451 0.0
0.807751 -0.148561 0.0
0.851494 -0.054897 0.0
0.894069 0.033885 0.0
0.931022 0.109585 0.0
0.960398 0.170632 0.0
0.981437 0.217191 0.0
0.993980 0.250374 0.0
0.998227 0.271902 0.0
0.994576 0.283917 0.0
0.983533 0.288820 0.0
0.965755 0.288930 0.0
0.942240 0.285776 0.0
0.914565 0.279163 0.0
0.884930 0.266719 0.0
0.855830 0.244750 0.0
0.829475 0.210290 0.0
0.807344 0.162942 0.0
0.790169 0.105178 0.0
0.778205 0.041237 0.0
0.771447 -0.024235 0.0
0.769635 -0.087154 0.0
0.772190 -0.144209 0.0
0.778270 -0.192972 0.0
0.786910 -0.231932 0.0
0.797181 -0.260361 0.0
0.808373 -0.278069 0.0
0.820123 -0.285120 0.0
0.832466 -0.281613 0.0
0.845751 -0.267632 0.0
0.860447 -0.243431 0.0
0.876914 -0.209745 0.0
0.895212 -0.168083 0.0
0.915024 -0.120815 0.0
0.935674 -0.071007 0.0
0.956192 -0.022087 0.0
0.975253 0.022210 0.0
0.991642 0.059275 0.0
1.004653 0.087988 0.0
1.013899 0.108031 0.0
1.019307 0.119719 0.0
1.021114 0.123749 0.0
1.019863 0.120867 0.0
1.016375 0.111760 0.0
1.011674 0.093095 0.0
0.998313 -0.008895 0.0
0.991360 -0.026410 0.0
0.976553 -0.044790 0.0
0.951790 -0.065357 0.0
0.913022 -0.089767 0.0
0.852389 -0.120149 0.0
0.753353 -0.158921 0.0
0.576863 -0.208806 0.0
0.231162 -0.247526 0.0
0.000000 0.240739 0.0
-0.000000 -0.000000 0.0
0.000000 0.000000 0.0
-0.017233 -0.017773 0.0
-0.048660 -0.016045 0.0
-0.074432 0.031447 0.0
-0.100821 0.123979 0.0
-0.135489 0.182734 0.0
-0.175811 0.187502 0.0
-0.210963 0.141650 0.0
-0.229426 0.048463 0.0
-0.224563 -0.082940 0.0
-0.198989 -0.223777 0.0
-0.159582 -0.345182 0.0
-0.106477 -0.423427 0.0
-0.029313 -0.435134 0.0
0.072808 -0.371641 0.0
0.189853 -0.263272 0.0
0.317799 -0.131319 0.0
0.442434 -0.000740 0.0
0.545873 0.107085 0.0
0.626908 0.195627 0.0
0.689129 0.269774 0.0
0.733014 0.329883 0.0
0.758979 0.376157 0.0
0.767406 0.409423 0.0
0.758273 0.431524 0.0
0.731153 0.445624 0.0
0.686756 0.455079 0.0
0.630475 0.459009 0.0
0.574690 0.447483 0.0
0.534506 0.405407 0.0
0.518567 0.325866 0.0
0.525060 0.217147 0.0
0.546585 0.095372 0.0
0.575681 -0.024307 0.0
0.606633 -0.130252 0.0
0.635846 -0.218912 0.0
0.661154 -0.289578 0.0
0.681073 -0.342850 0.0
0.694829 -0.380047 0.0
0.702622 -0.402562 0.0
0.706059 -0.410935 0.0
0.708368 -0.404020 0.0
0.713835 -0.379134 0.0
0.726349 -0.333822 0.0
0.747850 -0.268338 0.0
0.777792 -0.186824 0.0
0.813784 -0.096370 0.0
0.852139 -0.005572 0.0
0.888379 0.075849 0.0
0.919258 0.144112 0.0
0.943369 0.198561 0.0
0.960029 0.239802 0.0
0.969000 0.269255 0.0
0.970331 0.288884 0.0
0.964304 0.300923 0.0
0.951515 0.307394 0.0
0.933047 0.309296 0.0
0.910590 0.305775 0.0
0.886321 0.294012 0.0
0.862457 0.270419 0.0
0.840767 0.232666 0.0
0.822352 0.181111 0.0
0.807813 0.118722 0.0
0.797513 0.049957 0.0
0.791668 -0.020352 0.0
0.790213 -0.087769 0.0
0.792695 -0.148630 0.0
0.798339 -0.200276 0.0
0.806187 -0.241116 0.0
0.815261 -0.270523 0.0
0.824744 -0.288582 0.0
0.834150 -0.295763 0.0
0.843428 -0.292591 0.0
0.852950 -0.279461 0.0
0.863350 -0.256699 0.0
0.875263 -0.224856 0.0
0.889067 -0.185075 0.0
0.904739 -0.139307 0.0
0.921833 -0.090259 0.0
0.939567 -0.041087 0.0
0.956843 0.004874 0.0
0.972474 0.044591 0.0
0.985575 0.076561 0.0
0.995629 0.100157 0.0
1.002424 0.115390 0.0
1.006046 0.122649 0.0
1.006872 0.122391 0.0
1.005529 0.115066 0.0
1.002772 0.097247 0.0
0.998157 -0.005365 0.0
0.990597 -0.015426 0.0
0.974615 -0.024984 0.0
0.948252 -0.034036 0.0
0.908014 -0.042082 0.0
0.848120 -0.047308 0.0
0.760011 -0.044617 0.0
0.632726 -0.019335 0.0
0.474818 0.070987 0.0
0.195921 0.176823 0.0
0.000000 0.000000 0.0
-0.000000 -0.000000 0.0
0.000000 0.000000 0.0
-0.001501 -0.000925 0.0
-0.029448 0.069471 0.0
-0.089628 0.172524 0.0
-0.152677 0.231907 0.0
-0.205243 0.231217 0.0
-0.242426 0.170270 0.0
-0.256195 0.052075 0.0
-0.243565 -0.104044 0.0
-0.215530 -0.256281 0.0
-0.185248 -0.382368 0.0
-0.155492 -0.469104 0.0
-0.118530 -0.503584 0.0
-0.055731 -0.468112 0.0
0.036956 -0.376534 0.0
0.148272 -0.257318 0.0
0.269696 -0.120801 0.0
0.384150 0.009253 0.0
0.477976 0.118598 0.0
0.551188 0.211369 0.0
0.605732 0.289859 0.0
0.641588 0.354361 0.0
0.658485 0.405896 0.0
0.656184 0.446486 0.0
0.635551 0.478415 0.0
0.600942 0.501295 0.0
0.562265 0.507752 0.0
0.532868 0.483923 0.0
0.522494 0.419526 0.0
0.532171 0.318009 0.0
0.556667 0.194016 0.0
0.589970 0.063675 0.0
0.626508 -0.058242 0.0
0.661767 -0.162528 0.0
0.693187 -0.247268 0.0
0.719096 -0.312439 0.0
0.738380 -0.359193 0.0
0.750403 -0.389481 0.0
0.755102 -0.405620 0.0
0.753362 -0.409575 0.0
0.747568 -0.401896 0.0
0.741796 -0.380952 0.0
0.740921 -0.343643 0.0
0.748777 -0.287873 0.0
0.766599 -0.215052 0.0
0.792925 -0.130460 0.0
0.824638 -0.041551 0.0
0.857473 0.042754 0.0
0.887579 0.116221 0.0
0.912798 0.177122 0.0
0.931932 0.225447 0.0
0.944341 0.262229 0.0
0.949767 0.289153 0.0
0.948303 0.308145 0.0
0.940487 0.320777 0.0
0.927422 0.327446 0.0
0.910779 0.326724 0.0
0.892530 0.315581 0.0
0.874495 0.290748 0.0