# vtk DataFile Version 3.0
Scalar Field
ASCII
DATASET RECTILINEAR_GRID
DIMENSIONS 100 26 1
X_COORDINATES 100 double
0.050000 0.150000 0.250000 0.350000 0.450000 0.550000 0.650000 0.750000 0.850000 0.950000 1.050000 1.150000 1.250000 1.350000 1.450000 1.550000 1.650000 1.750000 1.850000 1.950000 2.050000 2.150000 2.250000 2.350000 2.450000 2.550000 2.650000 2.750000 2.850000 2.950000 3.050000 3.150000 3.250000 3.350000 3.450000 3.550000 3.650000 3.750000 3.850000 3.950000 4.050000 4.150000 4.250000 4.350000 4.450000 4.550000 4.650000 4.750000 4.850000 4.950000 5.050000 5.150000 5.250000 5.350000 5.450000 5.550000 5.650000 5.750000 5.850000 5.950000 6.050000 6.150000 6.250000 6.350000 6.450000 6.550000 6.650000 6.750000 6.850000 6.950000 7.050000 7.150000 7.250000 7.350000 7.450000 7.550000 7.650000 7.750000 7.850000 7.950000 8.050000 8.150000 8.250000 8.350000 8.450000 8.550000 8.650000 8.750000 8.850000 8.950000 9.050000 9.150000 9.250000 9.350000 9.450000 9.550000 9.650000 9.750000 9.850000 9.950000 
Y_COORDINATES 26 double
0.050000 0.150000 0.250000 0.350000 0.450000 0.550000 0.650000 0.750000 0.850000 0.950000 1.050000 1.150000 1.250000 1.350000 1.450000 1.550000 1.650000 1.750000 1.850000 1.950000 2.050000 2.150000 2.250000 2.350000 2.450000 2.550000 
Z_COORDINATES 1 double
0.0
POINT_DATA 2600
SCALARS Skalarfeld double 1
LOOKUP_TABLE default
0.291596
0.276382
0.261326
0.243382
0.221408
0.194879
0.163672
0.128045
0.088705
0.046851
0.004091
-0.037795
-0.077146
-0.112627
-0.143339
-0.168399
-0.187153
-0.199580
-0.205894
-0.206552
-0.202227
-0.193750
-0.182032
-0.167972
-0.152375
-0.135886
-0.118971
-0.101917
-0.084882
-0.067961
-0.051268
-0.035015
-0.019571
-0.004551
0.009196
0.020625
0.029136
0.034384
0.037053
0.037571
0.036050
0.032568
0.027097
0.019561
0.009961
-0.001448
-0.013953
-0.026130
-0.035786
-0.040696
-0.040326
-0.034963
-0.027520
-0.019155
-0.010557
-0.002300
0.005202
0.011709
0.017122
0.021452
0.024804
0.027334
0.029216
0.030620
0.031368
0.031412
0.030702
0.029249
0.027200
0.024846
0.022498
0.020276
0.017975
0.015175
0.011512
0.006945
0.001828
-0.003243
-0.007686
-0.011149
-0.013567
-0.015073
-0.015863
-0.016108
-0.016025
-0.015819
-0.015684
-0.015788
-0.016257
-0.017191
-0.018681
-0.020830
-0.023722
-0.027399
-0.031843
-0.036965
-0.042618
-0.048611
-0.054720
-0.060922
0.282673
0.276273
0.264220
0.247483
0.225881
0.199152
0.167199
0.130285
0.089196
0.045329
0.000607
-0.042917
-0.083455
-0.119641
-0.150451
-0.175408
-0.194264
-0.206662
-0.212783
-0.213071
-0.208199
-0.199019
-0.186478
-0.171519
-0.154993
-0.137588
-0.119804
-0.101956
-0.084219
-0.066697
-0.049497
-0.032795
-0.016597
-0.001537
0.011598
0.022248
0.030087
0.035323
0.037621
0.037600
0.035566
0.031671
0.025896
0.018139
0.008356
-0.003265
-0.016046
-0.028457
-0.038006
-0.042141
-0.040023
-0.034660
-0.027899
-0.019630
-0.011026
-0.002744
0.004765
0.011272
0.016687
0.021031
0.024427
0.027100
0.029249
0.030742
0.031454
0.031551
0.030917
0.029532
0.027537
0.025256
0.023041
0.021008
0.018876
0.016116
0.012287
0.007356
0.001779
-0.003692
-0.008359
-0.011852
-0.014176
-0.015551
-0.016241
-0.016340
-0.016123
-0.015767
-0.015482
-0.015449
-0.015789
-0.016624
-0.018026
-0.020131
-0.023014
-0.026721
-0.031228
-0.036438
-0.042193
-0.048291
-0.054496
-0.061331
0.285610
0.281577
0.271439
0.255764
0.234461
0.207210
0.173773
0.134305
0.089677
0.041660
-0.007069
-0.053838
-0.096642
-0.134239
-0.165928
-0.191354
-0.210457
-0.222840
-0.228584
-0.228074
-0.221957
-0.211108
-0.196538
-0.179282
-0.160299
-0.140393
-0.120183
-0.100101
-0.080427
-0.061348
-0.043015
-0.025580
-0.009351
0.004911
0.016715
0.025629
0.031465
0.034429
0.034897
0.032794
0.029207
0.024404
0.018376
0.010982
0.002125
-0.008032
-0.018797
-0.028747
-0.035936
-0.038840
-0.037370
-0.032719
-0.025557
-0.017700
-0.009920
-0.002179
0.004862
0.010992
0.016087
0.020156
0.023293
0.025668
0.027459
0.028775
0.029764
0.030202
0.030087
0.029396
0.028160
0.026533
0.024692
0.022669
0.020188
0.016898
0.012536
0.007195
0.001386
-0.004142
-0.008746
-0.012149
-0.014431
-0.015812
-0.016452
-0.016601
-0.016381
-0.015865
-0.015347
-0.015060
-0.015129
-0.015710
-0.017009
-0.019162
-0.022126
-0.025921
-0.030485
-0.035694
-0.041375
-0.047319
-0.053284
-0.059181
0.296057
0.292805
0.283737
0.268832
0.247657
0.219524
0.183776
0.140229
0.089760
0.034721
-0.020528
-0.072145
-0.117956
-0.157163
-0.189659
-0.215501
-0.234665
-0.246909
-0.252020
-0.250265
-0.242238
-0.228853
-0.211230
-0.190555
-0.167949
-0.144392
-0.120672
-0.097393
-0.074986
-0.053755
-0.033921
-0.015680
0.000601
0.014178
0.024497
0.031120
0.033954
0.033386
0.030208
0.025188
0.019092
0.012876
0.006538
-0.000096
-0.007200
-0.014714
-0.022155
-0.028559
-0.032746
-0.033886
-0.031914
-0.027414
-0.021134
-0.014022
-0.006487
0.000480
0.006669
0.012092
0.016517
0.019943
0.022434
0.024153
0.025327
0.026182
0.026899
0.027502
0.027961
0.028136
0.027873
0.027048
0.025607
0.023515
0.020596
0.016871
0.012263
0.006958
0.001405
-0.003820
-0.008252
-0.011691
-0.014155
-0.015738
-0.016513
-0.016593
-0.016109
-0.015464
-0.014844
-0.014406
-0.014275
-0.014765
-0.016058
-0.018213
-0.021280
-0.025166
-0.029738
-0.034826
-0.040247
-0.045803
-0.051259
-0.056620
0.312543
0.309702
0.301460
0.287339
0.266393
0.237256
0.198416
0.148852
0.089155
0.022349
-0.043014
-0.101058
-0.149983
-0.190273
-0.223016
-0.248929
-0.268012
-0.279891
-0.284075
-0.280516
-0.269722
-0.252722
-0.230854
-0.205549
-0.178168
-0.149907
-0.121757
-0.094502
-0.068726
-0.044844
-0.023121
-0.003714
0.013083
0.026279
0.035091
0.038913
0.037734
0.032289
0.023980
0.014615
0.005536
-0.002263
-0.008743
-0.014204
-0.019015
-0.023359
-0.027084
-0.029718
-0.030667
-0.029534
-0.026316
-0.021379
-0.015270
-0.008608
-0.001905
0.004315
0.009905
0.014501
0.018095
0.020681
0.022272
0.023070
0.023390
0.023561
0.023833
0.024337
0.025042
0.025738
0.026126
0.025913
0.024890
0.022910
0.019996
0.016026
0.011161
0.005878
0.000574
-0.004296
-0.008400
-0.011582
-0.013838
-0.015232
-0.015859
-0.015847
-0.015352
-0.014581
-0.013708
-0.012978
-0.012775
-0.013253
-0.014582
-0.016845
-0.020068
-0.024103
-0.028739
-0.033761
-0.038980
-0.044244
-0.049431
-0.055583
0.334293
0.331872
0.324667
0.311823
0.291763
0.262090
0.219736
0.161764
0.087492
0.000007
-0.080479
-0.145446
-0.195749
-0.235073
-0.266715
-0.292327
-0.311532
-0.323200
-0.326467
-0.320595
-0.306007
-0.284026
-0.256411
-0.224994
-0.191467
-0.157292
-0.123678
-0.091590
-0.061761
-0.034710
-0.010742
0.010063
0.027784
0.040995
0.048464
0.049231
0.043372
0.032032
0.017247
0.001703
-0.011674
-0.021223
-0.027529
-0.031289
-0.033305
-0.034154
-0.034069
-0.032981
-0.030690
-0.027065
-0.022172
-0.016284
-0.009805
-0.003186
0.003166
0.008898
0.013786
0.017609
0.020299
0.021784
0.022211
0.021803
0.021008
0.020272
0.019848
0.019948
0.020615
0.021618
0.022559
0.023003
0.022574
0.021010
0.018205
0.014176
0.009252
0.003869
-0.001467
-0.006154
-0.009939
-0.012710
-0.014486
-0.015370
-0.015504
-0.015052
-0.014186
-0.013095
-0.011977
-0.011078
-0.010691
-0.011072
-0.012434
-0.014873
-0.018338
-0.022629
-0.027483
-0.032640
-0.037893
-0.043113
-0.048271
-0.054768
0.360524
0.358702
0.353115
0.342609
0.324949
0.296373
0.251198
0.182302
0.084402
-0.042261
-0.143050
-0.210749
-0.256274
-0.289817
-0.317895
-0.343239
-0.364315
-0.377207
-0.380457
-0.372063
-0.352575
-0.324024
-0.288929
-0.249723
-0.208525
-0.167100
-0.126885
-0.089029
-0.054428
-0.023736
0.002629
0.024539
0.042627
0.056269
0.062944
0.061093
0.051093
0.034548
0.013841
-0.008045
-0.027773
-0.041565
-0.047950
-0.049988
-0.049148
-0.046550
-0.042845
-0.038298
-0.032972
-0.026896
-0.020185
-0.013069
-0.005861
0.001091
0.007466
0.012998
0.017482
0.020737
0.022607
0.022983
0.021924
0.019767
0.017054
0.014547
0.013156
0.012654
0.013230
0.014594
0.016226
0.017550
0.018052
0.017340
0.015190
0.011581
0.006755
0.001154
-0.004320
-0.009034
-0.012693
-0.015152
-0.016445
-0.016719
-0.016181
-0.015057
-0.013575
-0.011952
-0.010414
-0.009207
-0.008614
-0.008913
-0.010325
-0.012939
-0.016678
-0.021315
-0.026533
-0.032013
-0.037486
-0.042785
-0.047880
-0.053979
0.390116
0.389167
0.386054
0.379511
0.366874
0.343017
0.298559
0.217910
0.079700
-0.127219
-0.245230
-0.297795
-0.325085
-0.344918
-0.365839
-0.391589
-0.419475
-0.438402
-0.444364
-0.433986
-0.408788
-0.372320
-0.328318
-0.279997
-0.229951
-0.180247
-0.132556
-0.088236
-0.048376
-0.013831
0.014743
0.036874
0.052420
0.065258
0.071787
0.068069
0.055517
0.036567
0.013618
-0.010894
-0.034155
-0.053215
-0.063990
-0.065761
-0.063289
-0.058319
-0.051939
-0.044729
-0.036967
-0.028819
-0.020457
-0.012107
-0.004047
0.003431
0.010051
0.015580
0.019804
0.022488
0.023369
0.022263
0.019267
0.014901
0.010051
0.005719
0.002651
0.001656
0.002450
0.004500
0.007121
0.009615
0.011361
0.011872
0.010828
0.008127
0.003924
-0.001352
-0.007004
-0.012148
-0.015898
-0.018294
-0.019325
-0.019147
-0.018016
-0.016231
-0.014089
-0.011873
-0.009849
-0.008287
-0.007473
-0.007683
-0.009132
-0.011910
-0.015932
-0.020945
-0.026576
-0.032415
-0.038098
-0.043382
-0.048190
-0.053462
0.421445
0.421652
0.421931
0.421263
0.417241
0.404395
0.370196
0.285831
0.079082
-0.310571
-0.398438
-0.390364
-0.383363
-0.383122
-0.393402
-0.418749
-0.457100
-0.494864
-0.508562
-0.498144
-0.467823
-0.423733
-0.371155
-0.314094
-0.255549
-0.197864
-0.142973
-0.092518
-0.047904
-0.010297
0.019372
0.040327
0.052401
0.056809
0.059125
0.053962
0.042954
0.027396
0.008470
-0.012492
-0.033640
-0.052555
-0.066693
-0.073109
-0.071291
-0.066038
-0.058788
-0.050390
-0.041334
-0.031936
-0.022467
-0.013210
-0.004466
0.003463
0.010292
0.015758
0.019575
0.021389
0.020828
0.017698
0.012260
0.005378
-0.001640
-0.007485
-0.011329
-0.012277
-0.010792
-0.007666
-0.003752
0.000149
0.003344
0.005288
0.005607
0.004127
0.000922
-0.003662
-0.009012
-0.014345
-0.018682
-0.021249
-0.022322
-0.022004
-0.020559
-0.018337
-0.015705
-0.013015
-0.010590
-0.008734
-0.007742
-0.007889
-0.009387
-0.012321
-0.016600
-0.021939
-0.027897
-0.033966
-0.039679
-0.044708
-0.048934
-0.053060
0.452362
0.453897
0.458170
0.464845
0.472831
0.478809
0.472641
0.421296
0.178622
-0.651736
-0.574499
-0.442795
-0.409383
-0.395774
-0.397443
-0.421501
-0.464716
-0.517314
-0.551358
-0.545139
-0.513446
-0.465675
-0.408491
-0.346422
-0.282720
-0.220009
-0.160613
-0.106707
-0.060404
-0.023677
0.002211
0.017563
0.024191
0.024677
0.020999
0.017216
0.011757
0.004104
-0.005973
-0.018391
-0.032458
-0.046704
-0.059096
-0.067656
-0.070533
-0.067072
-0.060948
-0.053129
-0.044247
-0.034762
-0.025070
-0.015559
-0.006615
0.001389
0.008101
0.013166
0.016178
0.016663
0.014189
0.008667
0.000667
-0.008506
-0.017160
-0.023807
-0.027588
-0.027758
-0.025084
-0.020526
-0.015069
-0.009603
-0.004866
-0.001424
0.000328
0.000184
-0.001849
-0.005507
-0.010267
-0.015395
-0.020076
-0.023245
-0.024615
-0.024491
-0.023082
-0.020752
-0.017920
-0.014998
-0.012364
-0.010358
-0.009294
-0.009448
-0.011029
-0.014116
-0.018602
-0.024162
-0.030290
-0.036386
-0.041887
-0.046390
-0.049733
-0.052352
0.480413
0.483206
0.491322
0.505302
0.526021
0.554509
0.591094
0.631376
0.709009
0.028637
-0.498594
-0.422689
-0.413372
-0.405578
-0.407461
-0.427074
-0.464407
-0.510728
-0.550765
-0.558454
-0.529417
-0.483689
-0.428315
-0.367685
-0.304981
-0.243106
-0.184960
-0.133545
-0.091753
-0.061646
-0.043510
-0.035285
-0.033285
-0.034009
-0.034832
-0.032563
-0.029454
-0.026997
-0.026290
-0.028104
-0.032699
-0.039586
-0.047495
-0.054709
-0.059633
-0.060679
-0.057123
-0.051359
-0.044034
-0.035677
-0.026788
-0.017871
-0.009427
-0.001940
0.004125
0.008292
0.010024
0.008748
0.004055
-0.003931
-0.014247
-0.025183
-0.034813
-0.041634
-0.044560
-0.043427
-0.039152
-0.032858
-0.025661
-0.018529
-0.012231
-0.007330
-0.004205
-0.003063
-0.003924
-0.006590
-0.010618
-0.015345
-0.019974
-0.023697
-0.025630
-0.025964
-0.024894
-0.022776
-0.020050
-0.017170
-0.014555
-0.012580
-0.011578
-0.011831
-0.013545
-0.016788
-0.021429
-0.027106
-0.033250
-0.039184
-0.044260
-0.047999
-0.050189
-0.050874
0.503270
0.506970
0.517846
0.537019
0.566629
0.610400
0.674788
0.770766
0.905453
0.932223
0.000000
-0.419733
-0.416778
-0.416263
-0.421662
-0.438584
-0.464516
-0.494972
-0.520903
-0.529559
-0.508799
-0.468500
-0.420016
-0.366929
-0.311780
-0.257595
-0.207784
-0.165997
-0.135347
-0.116868
-0.108684
-0.106501
-0.105733
-0.102905
-0.094816
-0.083284
-0.070224
-0.057394
-0.046238
-0.037895
-0.033127
-0.032138
-0.034399
-0.038665
-0.043309
-0.046778
-0.047348
-0.044455
-0.039655
-0.033400
-0.026227
-0.018730
-0.011520
-0.005197
-0.000351
0.002410
0.002423
-0.000940
-0.007994
-0.018333
-0.030613
-0.042818
-0.052899
-0.059408
-0.060993
-0.058149
-0.051959
-0.043713
-0.034651
-0.025816
-0.017999
-0.011744
-0.007392
-0.005116
-0.004932
-0.006675
-0.009970
-0.014227
-0.018712
-0.022687
-0.025233
-0.026098
-0.025545
-0.023865
-0.021487
-0.018877
-0.016482
-0.014704
-0.013891
-0.014333
-0.016231
-0.019638
-0.024401
-0.030118
-0.036171
-0.041817
-0.046327
-0.049134
-0.049952
-0.048251
0.519257
0.523327
0.535285
0.556269
0.588324
0.634517
0.698451
0.781355
0.875777
0.958992
0.872336
0.000000
-0.422001
-0.427225
-0.432256
-0.445189
-0.460330
-0.473333
-0.478712
-0.470467
-0.449606
-0.415861
-0.376326
-0.334500
-0.291733
-0.251329
-0.217181
-0.192969
-0.180450
-0.177786
-0.180106
-0.181707
-0.178285
-0.165958
-0.147789
-0.126078
-0.103061
-0.080696
-0.060550
-0.043812
-0.031325
-0.023552
-0.020428
-0.021211
-0.024521
-0.028644
-0.031969
-0.032650
-0.030821
-0.027232
-0.022388
-0.016923
-0.011528
-0.006902
-0.003752
-0.002818
-0.004870
-0.010552
-0.020030
-0.032595
-0.046575
-0.059731
-0.069935
-0.075730
-0.075690
-0.070881
-0.062614
-0.052346
-0.041430
-0.030968
-0.021758
-0.014317
-0.008934
-0.005729
-0.004691
-0.005663
-0.008313
-0.012111
-0.016373
-0.020362
-0.023408
-0.024839
-0.024868
-0.023734
-0.021835
-0.019637
-0.017595
-0.016126
-0.015592
-0.016288
-0.018408
-0.021992
-0.026861
-0.032583
-0.038496
-0.043799
-0.047682
-0.049477
-0.048788
-0.044277
0.527680
0.531578
0.542958
0.562594
0.591696
0.631707
0.683785
0.746960
0.809027
0.827253
0.785680
0.665302
0.000000
-0.434641
-0.442057
-0.453222
-0.461058
-0.455185
-0.433864
-0.402505
-0.367859
-0.334566
-0.300741
-0.268890
-0.241367
-0.219773
-0.208541
-0.209376
-0.220228
-0.235277
-0.247139
-0.250310
-0.239358
-0.216357
-0.187954
-0.156614
-0.124747
-0.094401
-0.067140
-0.044066
-0.025897
-0.013041
-0.005573
-0.003098
-0.004603
-0.008523
-0.013081
-0.016722
-0.017867
-0.017068
-0.014778
-0.011633
-0.008367
-0.005754
-0.004606
-0.005788
-0.010154
-0.018318
-0.030256
-0.044964
-0.060492
-0.074438
-0.084598
-0.089422
-0.087436
-0.080590
-0.070312
-0.058180
-0.045625
-0.033777
-0.023425
-0.015044
-0.008866
-0.004959
-0.003273
-0.003645
-0.005769
-0.009166
-0.013202
-0.017174
-0.020451
-0.022372
-0.022938
-0.022340
-0.020945
-0.019199
-0.017558
-0.016445
-0.016229
-0.017206
-0.019565
-0.023331
-0.028304
-0.034026
-0.039801
-0.044774
-0.048054
-0.048860
-0.046654
-0.039028
0.528852
0.532180
0.541826
0.558183
0.581764
0.612759
0.649947
0.688361
0.714836
0.702827
0.635315
0.544925
0.370685
0.000000
-0.457846
-0.473636
-0.479796
-0.450956
-0.397508
-0.336973
-0.281384
-0.236667
-0.206655
-0.184869
-0.171090
-0.171439
-0.187545
-0.216563
-0.251492
-0.282843
-0.301514
-0.302313
-0.280476
-0.249123
-0.212414
-0.173525
-0.135059
-0.099041
-0.066915
-0.039611
-0.017656
-0.001299
0.009419
0.014719
0.015254
0.012245
0.007335
0.002149
-0.001578
-0.003258
-0.003375
-0.002507
-0.001400
-0.000884
-0.001871
-0.005328
-0.012156
-0.022886
-0.037269
-0.054020
-0.070959
-0.085558
-0.095655
-0.098588
-0.094934
-0.086336
-0.074424
-0.060870
-0.047136
-0.034342
-0.023237
-0.014247
-0.007550
-0.003165
-0.001012
-0.000924
-0.002618
-0.005659
-0.009462
-0.013361
-0.016741
-0.018989
-0.019968
-0.019815
-0.018860
-0.017527
-0.016263
-0.015490
-0.015580
-0.016829
-0.019418
-0.023361
-0.028440
-0.034181
-0.039860
-0.044578
-0.047371
-0.047341
-0.043784
-0.032998
0.523829
0.526376
0.533670
0.545708
0.562258
0.582388
0.603520
0.619848
0.620161
0.586483
0.500777
0.352591
0.196445
-0.247814
-0.564952
-0.517177
-0.499842
-0.445482
-0.365476
-0.281667
-0.208760
-0.153464
-0.117058
-0.099288
-0.100437
-0.123006
-0.164637
-0.217931
-0.271950
-0.314779
-0.336573
-0.326391
-0.299163
-0.262187
-0.220344
-0.177172
-0.135285
-0.096545
-0.062176
-0.032879
-0.008971
0.009477
0.022519
0.030295
0.033156
0.031883
0.027769
0.022394
0.017182
0.013497
0.011395
0.010289
0.009425
0.007929
0.004815
-0.000954
-0.010264
-0.023504
-0.040177
-0.058738
-0.076816
-0.091743
-0.101117
-0.102358
-0.097371
-0.087582
-0.074713
-0.060453
-0.046228
-0.033098
-0.021749
-0.012546
-0.005622
-0.000963
0.001524
0.001996
0.000704
-0.001968
-0.005482
-0.009212
-0.012552
-0.014989
-0.016228
-0.016385
-0.015758
-0.014748
-0.013790
-0.013300
-0.013651
-0.015136
-0.017929
-0.022033
-0.027225
-0.033018
-0.038680
-0.043283
-0.045806
-0.045248
-0.040741
-0.027178
0.514043
0.515701
0.520372
0.527759
0.537150
0.547015
0.554323
0.553569
0.535662
0.487058
0.389812
0.218719
-0.079639
-0.692072
-0.612726
-0.511327
-0.462902
-0.401616
-0.321280
-0.237043
-0.161969
-0.102579
-0.060181
-0.042538
-0.053011
-0.091102
-0.149405
-0.216598
-0.279634
-0.325801
-0.339738
-0.324706
-0.294734
-0.255924
-0.213026
-0.169492
-0.127745
-0.089393
-0.055414
-0.026304
-0.002211
0.016940
0.031321
0.041093
0.046426
0.047682
0.045636
0.041473
0.036432
0.031793
0.028460
0.025885
0.023381
0.020081
0.014968
0.007003
-0.004617
-0.020082
-0.038651
-0.058570
-0.077349
-0.092335
-0.100354
-0.100304
-0.094563
-0.084419
-0.071525
-0.057478
-0.043595
-0.030834
-0.019794
-0.010783
-0.003900
0.000876
0.003626
0.004480
0.003639
0.001430
-0.001672
-0.005089
-0.008239
-0.010671
-0.012007
-0.012327
-0.011902
-0.011110
-0.010371
-0.010096
-0.010650
-0.012322
-0.015284
-0.019532
-0.024845
-0.030743
-0.036501
-0.041191
-0.043768
-0.043169
-0.038394
-0.023185
0.501137
0.501929
0.504081
0.507138
0.510173
0.511483
0.508150
0.495485
0.466462
0.411247
0.316653
0.164947
-0.067083
-0.364845
-0.431363
-0.416774
-0.382268
-0.332823
-0.271577
-0.204901
-0.142067
-0.089689
-0.047630
-0.027676
-0.042545
-0.086067
-0.147412
-0.214168
-0.273147
-0.309982
-0.314407
-0.299001
-0.270338
-0.233964
-0.194153
-0.153983
-0.115557
-0.080225
-0.048773
-0.021577
0.001283
0.019925
0.034582
0.045502
0.052867
0.056835
0.057739
0.056216
0.053020
0.049299
0.045846
0.042495
0.038820
0.034065
0.027260
0.017443
0.003969
-0.013135
-0.032918
-0.053486
-0.072260
-0.086436
-0.092703
-0.092600
-0.087139
-0.077713
-0.065862
-0.053013
-0.040319
-0.028598
-0.018361
-0.009870
-0.003219
0.001590
0.004603
0.005897
0.005615
0.004019
0.001510
-0.001394
-0.004161
-0.006365
-0.007619
-0.007958
-0.007617
-0.006951
-0.006359
-0.006238
-0.006945
-0.008762
-0.011858
-0.016235
-0.021683
-0.027752
-0.033749
-0.038783
-0.041835
-0.041845
-0.037779
-0.022636
0.486713
0.486740
0.486694
0.486084
0.483966
0.478744
0.467916
0.447803
0.413349
0.358114
0.274587
0.155499
-0.000614
-0.171527
-0.261954
-0.291360
-0.286577
-0.260424
-0.221023
-0.175679
-0.130314
-0.088859
-0.058171
-0.047800
-0.062549
-0.099341
-0.150162
-0.203946
-0.248103
-0.269122
-0.271192
-0.257845
-0.233691
-0.203014
-0.169266
-0.135000
-0.101976
-0.071328
-0.043717
-0.019474
0.001308
0.018698
0.032876
0.044082
0.052551
0.058486
0.062083
0.063565
0.063617
0.062857
0.060553
0.057370
0.053271
0.047690
0.039796
0.028795
0.014253
-0.003598
-0.023667
-0.044028
-0.062191
-0.074579
-0.080404
-0.080870
-0.076692
-0.069058
-0.059266
-0.048491
-0.037675
-0.027489
-0.018369
-0.010565
-0.004203
0.000658
0.003997
0.005828
0.006229
0.005397
0.003666
0.001482
-0.000686
-0.002429
-0.003415
-0.003641
-0.003296
-0.002693
-0.002203
-0.002203
-0.003031
-0.004963
-0.008164
-0.012653
-0.018254
-0.024567
-0.030963
-0.036625
-0.040625
-0.041998
-0.039655
-0.027571
0.472192
0.471582
0.469735
0.466209
0.460175
0.450292
0.434586
0.410365
0.374240
0.322389
0.251238
0.159027
0.049406
-0.062917
-0.142504
-0.185555
-0.200080
-0.194187
-0.174782
-0.147890
-0.118680
-0.092123
-0.073814
-0.069371
-0.081552
-0.108546
-0.144620
-0.181312
-0.208780
-0.222542
-0.223505
-0.213268
-0.194673
-0.170702
-0.143940
-0.116391
-0.089478
-0.064129
-0.040890
-0.020037
-0.001673
0.014214
0.027709
0.038959
0.048143
0.055437
0.060962
0.065343
0.068739
0.070184
0.069828
0.067905
0.064385
0.058887
0.050806
0.039590
0.025037
0.007547
-0.011739
-0.030969
-0.047317
-0.058604
-0.065213
-0.067263
-0.065369
-0.060449
-0.053486
-0.045364
-0.036798
-0.028335
-0.020371
-0.013193
-0.007007
-0.001969
0.001809
0.004282
0.005457
0.005486
0.004647
0.003318
0.001925
0.000838
0.000248
0.000222
0.000624
0.001188
0.001582
0.001465
0.000523
-0.001500
-0.004777
-0.009355
-0.015116
-0.021737
-0.028684
-0.035248
-0.040662
-0.044078
-0.044890
-0.038894
0.458755
0.457626
0.454342
0.448577
0.439687
0.426640
0.407980
0.381847
0.346109
0.298686
0.238190
0.165022
0.083116
0.001625
-0.064233
-0.108606
-0.132631
-0.140087
-0.135455
-0.123243
-0.107748
-0.093145
-0.083544
-0.082443
-0.091456
-0.109436
-0.132611
-0.155418
-0.172595
-0.181560
-0.181757
-0.174032
-0.160108
-0.141983
-0.121518
-0.100221
-0.079182
-0.059089
-0.040306
-0.022973
-0.007117
0.007267
0.020171
0.031586
0.041539
0.050099
0.057633
0.064089
0.069100
0.072425
0.073994
0.073759
0.071530
0.066962
0.059642
0.049260
0.035817
0.019802
0.002283
-0.014836
-0.029651
-0.041488
-0.049743
-0.054282
-0.055427
-0.053777
-0.049989
-0.044649
-0.038278
-0.031344
-0.024263
-0.017419
-0.011137
-0.005723
-0.001394
0.001806
0.003780
0.004700
0.004801
0.004389
0.003798
0.003292
0.003101
0.003283
0.003730
0.004223
0.004483
0.004219
0.003159
0.001067
-0.002240
-0.006858
-0.012759
-0.019728
-0.027351
-0.035066
-0.042283
-0.048448
-0.053273
-0.055958
0.447371
0.445790
0.441319
0.433818
0.422865
0.407726
0.387382
0.360610
0.326140
0.282951
0.230740
0.170579
0.105686
0.041823
-0.013379
-0.055401
-0.083349
-0.098639
-0.103862
-0.102114
-0.096619
-0.090553
-0.086845
-0.087775
-0.094361
-0.105938
-0.120249
-0.134177
-0.144650
-0.149760
-0.148949
-0.142647
-0.131947
-0.118224
-0.102829
-0.086878
-0.071149
-0.056057
-0.041698
-0.027954
-0.014638
-0.001651
0.010917
0.022819
0.033815
0.043897
0.052999
0.060874
0.067387
0.072348
0.075599
0.076972
0.076222
0.073050
0.067181
0.058475
0.047042
0.033322
0.018246
0.002656
-0.012325
-0.025703
-0.036520
-0.044171
-0.048625
-0.050240
-0.049414
-0.046473
-0.041790
-0.035848
-0.029123
-0.022206
-0.015486
-0.009448
-0.004390
-0.000481
0.002319
0.004031
0.004863
0.005114
0.005086
0.005031
0.005120
0.005391
0.005764
0.006070
0.006097
0.005624
0.004436
0.002322
-0.000927
-0.005480
-0.011458
-0.018781
-0.027330
-0.036500
-0.045622
-0.054471
-0.063209
-0.075556
0.438882
0.436800
0.431202
0.422246
0.409742
0.393200
0.371926
0.345137
0.312120
0.272457
0.226345
0.174960
0.120782
0.067593
0.019817
-0.019344
-0.048583
-0.068209
-0.079620
-0.084837
-0.086156
-0.085893
-0.086134
-0.088442
-0.093533
-0.101085
-0.109835
-0.118134
-0.123884
-0.125958
-0.123973
-0.118237
-0.109550
-0.098954
-0.087488
-0.075989
-0.064972
-0.054576
-0.044584
-0.034511
-0.023788
-0.012051
0.000578
0.013444
0.025911
0.037561
0.048143
0.057516
0.065538
0.072037
0.076825
0.079692
0.080409
0.078776
0.074676
0.068089
0.059105
0.047759
0.034080
0.018851
0.002651
-0.013326
-0.027427
-0.038310
-0.045630
-0.049797
-0.051162
-0.049790
-0.045934
-0.040325
-0.033304
-0.025871
-0.018806
-0.012273
-0.006587
-0.002027
0.001369
0.003679
0.005094
0.005860
0.006228
0.006412
0.006540
0.006650
0.006702
0.006601
0.006232
0.005469
0.004167
0.002142
-0.000887
-0.005172
-0.011271
-0.019258
-0.028698
-0.039089
-0.049859
-0.060739
-0.072144
-0.091907
0.434228
0.431272
0.424289
0.413919
0.400144
0.382604
0.360791
0.334201
0.302452
0.265455
0.223616
0.178039
0.130648
0.084085
0.041254
0.004483
-0.024960
-0.046902
-0.062049
-0.071690
-0.077429
-0.080955
-0.083769
-0.086997
-0.091191
-0.096248
-0.101619
-0.106049
-0.108476
-0.108221
-0.105113
-0.099480
-0.092021
-0.083616
-0.075120
-0.067180
-0.060112
-0.053833
-0.047872
-0.041401
-0.033340
-0.022751
-0.009545
0.004618
0.018654
0.032032
0.044302
0.055247
0.064732
0.072619
0.078728
0.082853
0.084810
0.084531
0.082109
0.077617
0.070384
0.060386
0.047764
0.032217
0.014009
-0.005339
-0.023104
-0.036770
-0.045672
-0.050846
-0.053226
-0.052574
-0.048384
-0.042366
-0.035595
-0.028088
-0.020481
-0.013460
-0.007385
-0.002456
0.001302
0.003992
0.005800
0.006901
0.007469
0.007680
0.007592
0.007249
0.006683
0.005906
0.004959
0.003843
0.002495
0.000797
-0.001902
-0.006188
-0.012250
-0.020397
-0.030468
-0.041858
-0.053779
-0.065709
-0.077846
-0.098856
0.435057
0.429666
0.420557
0.408652
0.393764
0.375476
0.353303
0.326898
0.296063
0.260874
0.221812
0.179876
0.136624
0.094060
0.054322
0.019225
-0.010079
-0.033215
-0.050506
-0.062789
-0.071188
-0.077019
-0.081372
-0.085115
-0.088755
-0.092360
-0.095489
-0.097517
-0.097832
-0.096059
-0.092186
-0.086577
-0.079879
-0.072875
-0.066301
-0.060679
-0.056192
-0.052641
-0.049466
-0.045779
-0.040235
-0.030894
-0.017486
-0.002323
0.013526
0.028708
0.042564
0.054848
0.065472
0.074347
0.081326
0.086207
0.088822
0.089258
0.088015
0.084026
0.077772
0.068999
0.057043
0.041191
0.021331
-0.000958
-0.022001
-0.037776
-0.046847
-0.050869
-0.052196
-0.051700
-0.048778
-0.043000
-0.035711
-0.027935
-0.020260
-0.013199
-0.007089
-0.002104
0.001740
0.004557
0.006587
0.007888
0.008513
0.008542
0.008117
0.007308
0.006140
0.004681
0.003049
0.001429
-0.000063
-0.001736
-0.004248
-0.008145
-0.013815
-0.021687
-0.031726
-0.043300
-0.055580
-0.067915
-0.080198
-0.095201
0.445845
0.431623
0.419424
0.406169
0.390502
0.371677
0.349279
0.322980
0.292652
0.258432
0.220808
0.180702
0.139476
0.098838
0.060598
0.026342
-0.002844
-0.026509
-0.044807
-0.058374
-0.068160
-0.075105
-0.080251
-0.084385
-0.087960
-0.091059
-0.093420
-0.094594
-0.094143
-0.091813
-0.087652
-0.082025
-0.075545
-0.068939
-0.062879
-0.057832
-0.053938
-0.050960
-0.048310
-0.045109
-0.040226
-0.032524
-0.020792
-0.004816
0.012173
0.028369
0.043007
0.055860
0.066881
0.076021
0.083158
0.088098
0.090649
0.090731
0.088249
0.084273
0.078305
0.069860
0.058313
0.043043
0.023951
0.002323
-0.018689
-0.035255
-0.045431
-0.050241
-0.051669
-0.050550
-0.047312
-0.041834
-0.034842
-0.027259
-0.019763
-0.012855
-0.006865
-0.001961
0.001833
0.004608
0.006470
0.007681
0.008315
0.008381
0.007943
0.007064
0.005798
0.004226
0.002473
0.000671
-0.001176
-0.003230
-0.005656
-0.009429
-0.015226
-0.023104
-0.032871
-0.044087
-0.056105
-0.068398
-0.080811
-0.094260
