# vtk DataFile Version 3.0
Scalar Field
ASCII
DATASET RECTILINEAR_GRID
DIMENSIONS 100 26 1
X_COORDINATES 100 double
0.050000 0.150000 0.250000 0.350000 0.450000 0.550000 0.650000 0.750000 0.850000 0.950000 1.050000 1.150000 1.250000 1.350000 1.450000 1.550000 1.650000 1.750000 1.850000 1.950000 2.050000 2.150000 2.250000 2.350000 2.450000 2.550000 2.650000 2.750000 2.850000 2.950000 3.050000 3.150000 3.250000 3.350000 3.450000 3.550000 3.650000 3.750000 3.850000 3.950000 4.050000 4.150000 4.250000 4.350000 4.450000 4.550000 4.650000 4.750000 4.850000 4.950000 5.050000 5.150000 5.250000 5.350000 5.450000 5.550000 5.650000 5.750000 5.850000 5.950000 6.050000 6.150000 6.250000 6.350000 6.450000 6.550000 6.650000 6.750000 6.850000 6.950000 7.050000 7.150000 7.250000 7.350000 7.450000 7.550000 7.650000 7.750000 7.850000 7.950000 8.050000 8.150000 8.250000 8.350000 8.450000 8.550000 8.650000 8.750000 8.850000 8.950000 9.050000 9.150000 9.250000 9.350000 9.450000 9.550000 9.650000 9.750000 9.850000 9.950000 
Y_COORDINATES 26 double
0.050000 0.150000 0.250000 0.350000 0.450000 0.550000 0.650000 0.750000 0.850000 0.950000 1.050000 1.150000 1.250000 1.350000 1.450000 1.550000 1.650000 1.750000 1.850000 1.950000 2.050000 2.150000 2.250000 2.350000 2.450000 2.550000 
Z_COORDINATES 1 double
0.0
POINT_DATA 2600
SCALARS Skalarfeld double 1
LOOKUP_TABLE default
0.163179
0.159135
0.150463
0.136745
0.117730
0.093306
0.063588
0.029058
-0.009294
-0.049920
-0.090804
-0.129760
-0.164775
-0.194254
-0.217131
-0.232874
-0.241390
-0.242955
-0.238270
-0.228263
-0.214010
-0.196650
-0.177321
-0.157109
-0.137027
-0.118003
-0.100858
-0.086218
-0.074676
-0.066564
-0.061830
-0.059934
-0.059879
-0.060398
-0.060285
-0.058340
-0.054093
-0.047540
-0.039038
-0.029169
-0.018600
-0.007976
0.002160
0.011407
0.019527
0.026443
0.032223
0.037058
0.041233
0.045074
0.048894
0.052875
0.057379
0.062248
0.067190
0.071804
0.075597
0.078004
0.078446
0.076453
0.071840
0.064908
0.056537
0.048061
0.040900
0.036169
0.034501
0.035568
0.038676
0.042923
0.047396
0.051355
0.054361
0.056328
0.057491
0.058307
0.059282
0.060797
0.062999
0.065779
0.069175
0.072901
0.076887
0.081203
0.085991
0.091408
0.097571
0.104522
0.112209
0.120487
0.129157
0.138017
0.146938
0.155931
0.165185
0.175052
0.185930
0.198062
0.211223
0.227257
0.166852
0.163666
0.155214
0.141427
0.122096
0.097054
0.066343
0.030411
-0.009704
-0.052287
-0.095035
-0.135511
-0.171584
-0.201664
-0.224744
-0.240354
-0.248460
-0.249377
-0.243844
-0.232835
-0.217473
-0.198948
-0.178446
-0.157100
-0.135962
-0.115988
-0.098049
-0.082986
-0.071421
-0.063705
-0.059757
-0.058940
-0.060088
-0.061727
-0.062403
-0.061024
-0.057015
-0.050434
-0.041721
-0.031537
-0.020612
-0.009634
0.000832
0.010373
0.018749
0.025884
0.031850
0.036844
0.041149
0.045097
0.049020
0.053215
0.057597
0.062148
0.066661
0.070799
0.074126
0.076132
0.076278
0.074097
0.069370
0.062321
0.053739
0.044921
0.037430
0.032623
0.030891
0.031999
0.035269
0.039766
0.044545
0.048837
0.052191
0.054517
0.056053
0.057249
0.058590
0.060427
0.062895
0.065944
0.069209
0.072705
0.076422
0.080460
0.084975
0.090129
0.096044
0.102763
0.110234
0.118316
0.126815
0.135543
0.144382
0.153355
0.162656
0.172649
0.183793
0.196512
0.211025
0.233385
0.176331
0.173358
0.165000
0.151059
0.131184
0.105011
0.072372
0.033575
-0.010281
-0.057127
-0.103929
-0.147637
-0.185885
-0.217141
-0.240574
-0.255893
-0.263148
-0.262699
-0.255390
-0.242285
-0.224599
-0.203620
-0.180639
-0.156893
-0.133538
-0.111640
-0.092215
-0.076264
-0.064601
-0.057697
-0.055449
-0.057012
-0.060839
-0.064987
-0.067642
-0.067468
-0.063921
-0.057237
-0.048044
-0.037165
-0.025452
-0.013669
-0.002423
0.007853
0.016916
0.024688
0.031241
0.036760
0.041506
0.045771
0.049833
0.053917
0.058095
0.062247
0.066204
0.069683
0.072329
0.073712
0.073344
0.070755
0.065673
0.058219
0.049067
0.039447
0.030959
0.025184
0.023100
0.024172
0.027698
0.032721
0.038247
0.043463
0.047866
0.051312
0.053968
0.056190
0.058354
0.060722
0.063383
0.066290
0.069314
0.072402
0.075658
0.079207
0.083216
0.087874
0.093313
0.099590
0.106661
0.114391
0.122593
0.131086
0.139765
0.148659
0.157974
0.168102
0.179590
0.193077
0.209245
0.237236
0.191212
0.188327
0.180053
0.165984
0.145476
0.117771
0.082254
0.038878
-0.011262
-0.065529
-0.119206
-0.168053
-0.209470
-0.242233
-0.265913
-0.280523
-0.286225
-0.283533
-0.273392
-0.256978
-0.235638
-0.210818
-0.183970
-0.156494
-0.129693
-0.104770
-0.082901
-0.065465
-0.053618
-0.048095
-0.048798
-0.054522
-0.063015
-0.071440
-0.077163
-0.078623
-0.075526
-0.068416
-0.058250
-0.046120
-0.033066
-0.019961
-0.007467
0.003966
0.014087
0.022820
0.030225
0.036468
0.041776
0.046403
0.050590
0.054530
0.058338
0.062061
0.065386
0.068084
0.069898
0.070516
0.069527
0.066488
0.061082
0.053326
0.043734
0.033381
0.023784
0.016566
0.013229
0.014079
0.017747
0.023326
0.029781
0.036220
0.042047
0.047003
0.051124
0.054624
0.057761
0.060731
0.063624
0.066442
0.069149
0.071747
0.074323
0.077091
0.080368
0.084327
0.089068
0.094699
0.101204
0.108461
0.116290
0.124514
0.133029
0.141860
0.151213
0.161489
0.173284
0.187372
0.204698
0.235202
0.211329
0.208577
0.200576
0.186660
0.165739
0.136389
0.097133
0.047078
-0.012956
-0.079712
-0.144242
-0.200229
-0.245344
-0.279403
-0.302793
-0.315919
-0.319109
-0.313094
-0.298854
-0.277680
-0.251112
-0.220818
-0.188487
-0.155747
-0.124108
-0.094923
-0.069447
-0.049727
-0.037532
-0.034125
-0.039468
-0.051801
-0.067738
-0.082921
-0.093190
-0.096494
-0.093479
-0.085212
-0.073199
-0.058956
-0.043787
-0.028703
-0.014422
-0.001401
0.010118
0.020064
0.028500
0.035580
0.041515
0.046541
0.050870
0.054650
0.057921
0.060874
0.063409
0.065125
0.065882
0.065566
0.063915
0.060556
0.055148
0.047581
0.038164
0.027731
0.017595
0.009314
0.004253
0.004142
0.007542
0.013371
0.020547
0.028094
0.035294
0.041742
0.047317
0.052087
0.056201
0.059801
0.062977
0.065761
0.068160
0.070217
0.072062
0.073935
0.076132
0.079076
0.082948
0.087791
0.093632
0.100362
0.107804
0.115777
0.124167
0.132983
0.142404
0.152810
0.164792
0.179147
0.196883
0.227453
0.236434
0.233966
0.226670
0.213579
0.193013
0.162516
0.119039
0.059772
-0.015710
-0.104347
-0.185326
-0.249615
-0.297448
-0.331468
-0.353454
-0.363889
-0.363505
-0.352967
-0.333147
-0.305493
-0.271821
-0.234121
-0.194417
-0.154663
-0.116665
-0.081998
-0.051809
-0.028710
-0.015686
-0.014931
-0.026496
-0.047886
-0.074301
-0.099406
-0.116793
-0.122379
-0.118866
-0.108432
-0.093459
-0.076068
-0.057902
-0.040123
-0.023491
-0.008453
0.004777
0.016154
0.025759
0.033756
0.040359
0.045795
0.050245
0.053792
0.056394
0.057931
0.058899
0.059319
0.058707
0.057340
0.055172
0.051883
0.047064
0.040444
0.032092
0.022551
0.012853
0.004370
-0.001488
-0.003630
-0.000903
0.004653
0.012016
0.020182
0.028329
0.035912
0.042652
0.048472
0.053417
0.057567
0.060989
0.063715
0.065768
0.067212
0.068218
0.069085
0.070198
0.071944
0.074779
0.078749
0.083889
0.090094
0.097181
0.104957
0.113286
0.122142
0.131659
0.142162
0.154184
0.168466
0.185948
0.215066
0.266004
0.264063
0.258180
0.247110
0.228515
0.198551
0.151515
0.080386
-0.019820
-0.149843
-0.253378
-0.322693
-0.368334
-0.399144
-0.418472
-0.425197
-0.420720
-0.404646
-0.377721
-0.341706
-0.298859
-0.251636
-0.202516
-0.153909
-0.108074
-0.067024
-0.032246
-0.004608
0.010330
0.008720
-0.009255
-0.040099
-0.077795
-0.114569
-0.142123
-0.153514
-0.149214
-0.136070
-0.117507
-0.096383
-0.074723
-0.053841
-0.034529
-0.017216
-0.002084
0.010852
0.021697
0.030634
0.037886
0.043665
0.048092
0.051137
0.052655
0.052554
0.050995
0.049100
0.046955
0.044789
0.042617
0.040047
0.036555
0.031700
0.025315
0.017645
0.009398
0.001675
-0.004269
-0.007402
-0.006207
-0.001454
0.005447
0.013550
0.021992
0.030122
0.037528
0.044002
0.049479
0.053964
0.057479
0.060032
0.061639
0.062380
0.062463
0.062257
0.062235
0.062876
0.064588
0.067654
0.072096
0.077807
0.084593
0.092240
0.100576
0.109526
0.119158
0.129717
0.141642
0.155567
0.172301
0.199103
0.299070
0.297971
0.294448
0.287143
0.273266
0.247551
0.200510
0.116574
-0.025513
-0.240260
-0.364003
-0.420691
-0.451825
-0.474596
-0.491994
-0.496986
-0.489665
-0.467901
-0.432861
-0.387033
-0.333363
-0.274917
-0.214766
-0.155910
-0.101246
-0.053606
-0.015706
0.013508
0.031682
0.028652
0.006093
-0.030768
-0.075169
-0.119501
-0.155620
-0.176793
-0.175217
-0.160907
-0.139913
-0.115986
-0.091557
-0.068103
-0.046475
-0.027129
-0.010260
0.004111
0.016084
0.025836
0.033575
0.039450
0.043447
0.045358
0.044970
0.042416
0.038383
0.033891
0.030445
0.028144
0.026714
0.025590
0.024117
0.021715
0.018017
0.012993
0.007035
0.000943
-0.004221
-0.007390
-0.007710
-0.004232
0.001635
0.009007
0.017045
0.025051
0.032519
0.039136
0.044732
0.049230
0.052590
0.054779
0.055794
0.055724
0.054816
0.053502
0.052337
0.051875
0.052545
0.054708
0.058476
0.063740
0.070289
0.077878
0.086286
0.095373
0.105126
0.115692
0.127395
0.140738
0.156378
0.180396
0.334088
0.334150
0.333993
0.332499
0.327103
0.312126
0.274778
0.186051
-0.027637
-0.434285
-0.528288
-0.523807
-0.522943
-0.533743
-0.554617
-0.568663
-0.562324
-0.536596
-0.494355
-0.439319
-0.375252
-0.305910
-0.235073
-0.166516
-0.103885
-0.050830
-0.011384
0.011501
0.024481
0.019254
-0.002194
-0.035328
-0.075467
-0.116929
-0.153007
-0.177216
-0.185521
-0.173384
-0.153042
-0.129024
-0.104069
-0.079808
-0.057207
-0.036823
-0.018951
-0.003701
0.008949
0.019107
0.026884
0.032276
0.035058
0.034894
0.031747
0.026303
0.019937
0.014089
0.010226
0.008601
0.008645
0.009603
0.010695
0.011221
0.010661
0.008762
0.005634
0.001777
-0.001989
-0.004728
-0.005674
-0.003716
0.000829
0.006974
0.014012
0.021272
0.028210
0.034435
0.039693
0.043827
0.046727
0.048313
0.048557
0.047550
0.045574
0.043116
0.040797
0.039233
0.038900
0.040186
0.043316
0.048187
0.054569
0.062171
0.070707
0.079959
0.089820
0.100329
0.111687
0.124258
0.138549
0.159524
0.368943
0.370369
0.374271
0.380210
0.386932
0.390862
0.381469
0.325237
0.072919
-0.794022
-0.713830
-0.579397
-0.549876
-0.549596
-0.576104
-0.613945
-0.616568
-0.592056
-0.547897
-0.488998
-0.419697
-0.344364
-0.267725
-0.195017
-0.131597
-0.081699
-0.047326
-0.028573
-0.024819
-0.029734
-0.042370
-0.062223
-0.087674
-0.115868
-0.142491
-0.162570
-0.172312
-0.168610
-0.152049
-0.131088
-0.108462
-0.085832
-0.064256
-0.044437
-0.026836
-0.011731
0.000742
0.010532
0.017568
0.021619
0.022277
0.019273
0.013041
0.004989
-0.002947
-0.009165
-0.012403
-0.012544
-0.010355
-0.006765
-0.002694
0.001047
0.003823
0.005225
0.005145
0.003826
0.001849
0.000010
-0.000886
-0.000184
0.002851
0.007470
0.013101
0.019143
0.025060
0.030423
0.034918
0.038316
0.040444
0.041172
0.040446
0.038357
0.035214
0.031550
0.028040
0.025359
0.024049
0.024448
0.026969
0.031503
0.037786
0.045465
0.054172
0.063596
0.073526
0.083890
0.094765
0.106383
0.119107
0.136860
0.401155
0.403906
0.411801
0.425300
0.445147
0.472161
0.506319
0.542519
0.617584
-0.088219
-0.634795
-0.555760
-0.550896
-0.551428
-0.571158
-0.608404
-0.628273
-0.610130
-0.572067
-0.518409
-0.453597
-0.382663
-0.311443
-0.246172
-0.192523
-0.154556
-0.131107
-0.117061
-0.112334
-0.107400
-0.104648
-0.105502
-0.110579
-0.119515
-0.130544
-0.140614
-0.146435
-0.145751
-0.136775
-0.121044
-0.103038
-0.084247
-0.065703
-0.048211
-0.032402
-0.018751
-0.007601
0.000785
0.006097
0.007870
0.005622
-0.000636
-0.009834
-0.019919
-0.028666
-0.034528
-0.036315
-0.034236
-0.029270
-0.022552
-0.015172
-0.008059
-0.001937
0.002697
0.005599
0.006825
0.006758
0.006038
0.005405
0.005487
0.007121
0.010171
0.014214
0.018764
0.023333
0.027491
0.030887
0.033238
0.034317
0.033950
0.032058
0.028732
0.024305
0.019344
0.014572
0.010723
0.008404
0.007933
0.009872
0.014116
0.020355
0.028158
0.037057
0.046632
0.056560
0.066656
0.076883
0.087347
0.098290
0.112641
0.428325
0.432068
0.442938
0.462012
0.491372
0.534680
0.598388
0.693671
0.827709
0.866358
0.000000
-0.554899
-0.554038
-0.549496
-0.559574
-0.578006
-0.591509
-0.583185
-0.554318
-0.511377
-0.458882
-0.402630
-0.349423
-0.305406
-0.274357
-0.254283
-0.239143
-0.227866
-0.211901
-0.192045
-0.171314
-0.152181
-0.136512
-0.125498
-0.119326
-0.116862
-0.115885
-0.113961
-0.109392
-0.100529
-0.088230
-0.074662
-0.060625
-0.046922
-0.034297
-0.023394
-0.014752
-0.008862
-0.006285
-0.007673
-0.013456
-0.023183
-0.035143
-0.046811
-0.055851
-0.060838
-0.060497
-0.055541
-0.047231
-0.036964
-0.026033
-0.015500
-0.006157
0.001462
0.007064
0.010609
0.012343
0.012777
0.012585
0.012439
0.012888
0.014544
0.017024
0.020007
0.023085
0.025850
0.027937
0.029029
0.028855
0.027207
0.023985
0.019286
0.013458
0.007101
0.000983
-0.004105
-0.007486
-0.008788
-0.007427
-0.003451
0.002771
0.010709
0.019782
0.029447
0.039261
0.048927
0.058299
0.067381
0.076306
0.087033
0.448661
0.452863
0.465058
0.486381
0.518879
0.565679
0.630709
0.715558
0.812974
0.905007
0.826183
0.000000
-0.547860
-0.541682
-0.532018
-0.529842
-0.528760
-0.520633
-0.497314
-0.464973
-0.429630
-0.397674
-0.374742
-0.363169
-0.358906
-0.356686
-0.351309
-0.332628
-0.301948
-0.265431
-0.226899
-0.189650
-0.156227
-0.128433
-0.107327
-0.093019
-0.084438
-0.079542
-0.076011
-0.071897
-0.065795
-0.057920
-0.049083
-0.040037
-0.031558
-0.024393
-0.019239
-0.016799
-0.017868
-0.023214
-0.033073
-0.046472
-0.061116
-0.074149
-0.083181
-0.086843
-0.083791
-0.075425
-0.063350
-0.049268
-0.034698
-0.020835
-0.008522
0.001712
0.009594
0.015071
0.018328
0.019787
0.020060
0.019821
0.019666
0.020024
0.021082
0.022585
0.024195
0.025537
0.026246
0.025985
0.024452
0.021414
0.016763
0.010599
0.003289
-0.004537
-0.012068
-0.018452
-0.022943
-0.025041
-0.024271
-0.020572
-0.014391
-0.006360
0.002814
0.012452
0.021990
0.031016
0.039288
0.046720
0.053361
0.060187
0.461328
0.465438
0.477290
0.497681
0.527855
0.569237
0.622946
0.688842
0.756107
0.781794
0.747359
0.635451
0.000000
-0.519302
-0.496921
-0.474565
-0.459577
-0.442258
-0.418754
-0.395874
-0.380022
-0.376407
-0.387314
-0.409964
-0.433920
-0.448798
-0.444358
-0.413235
-0.368836
-0.317062
-0.263093
-0.211098
-0.164089
-0.124039
-0.092092
-0.068698
-0.053488
-0.045091
-0.041324
-0.039894
-0.038509
-0.035622
-0.031853
-0.027639
-0.023689
-0.020784
-0.019741
-0.021458
-0.026920
-0.036904
-0.051316
-0.068610
-0.085977
-0.100305
-0.109181
-0.110882
-0.104723
-0.092630
-0.076616
-0.058711
-0.040651
-0.023746
-0.008863
0.003510
0.013165
0.020101
0.024504
0.026754
0.027411
0.027118
0.026458
0.025963
0.025887
0.026127
0.026426
0.026451
0.025844
0.024255
0.021366
0.016929
0.010833
0.003188
-0.005619
-0.014929
-0.023886
-0.031576
-0.037174
-0.040101
-0.039918
-0.036543
-0.030485
-0.022476
-0.013352
-0.003923
0.005116
0.013245
0.020131
0.025615
0.029682
0.032284
0.466491
0.470079
0.480336
0.497669
0.522662
0.555684
0.595785
0.638100
0.670166
0.665303
0.605858
0.523543
0.362086
0.000000
-0.456472
-0.416022
-0.401226
-0.370724
-0.341747
-0.324921
-0.325862
-0.346779
-0.387946
-0.441516
-0.489585
-0.515340
-0.503259
-0.462436
-0.406786
-0.343384
-0.278287
-0.216168
-0.160228
-0.112384
-0.073599
-0.044202
-0.024026
-0.012246
-0.007186
-0.006508
-0.007792
-0.009352
-0.010037
-0.010244
-0.010646
-0.012046
-0.015367
-0.021678
-0.032071
-0.047186
-0.066470
-0.087785
-0.107865
-0.123377
-0.131917
-0.131009
-0.121572
-0.105728
-0.085940
-0.064541
-0.043448
-0.024038
-0.007159
0.006769
0.017636
0.025527
0.030671
0.033442
0.034359
0.034037
0.033073
0.031950
0.031016
0.030263
0.029494
0.028406
0.026649
0.023867
0.019729
0.013983
0.006522
-0.002528
-0.012760
-0.023484
-0.033806
-0.042750
-0.049423
-0.053173
-0.053596
-0.050635
-0.044848
-0.037057
-0.028212
-0.019251
-0.010993
-0.004064
0.001121
0.004342
0.005534
0.003572
0.465104
0.467954
0.476024
0.489345
0.507741
0.530410
0.554949
0.575748
0.581952
0.555801
0.479625
0.343901
0.200629
-0.207866
-0.446371
-0.391921
-0.366101
-0.315235
-0.278135
-0.262330
-0.276526
-0.318463
-0.382531
-0.455028
-0.514837
-0.541858
-0.521634
-0.475733
-0.413989
-0.344689
-0.274404
-0.207890
-0.148205
-0.097014
-0.054984
-0.022211
0.001475
0.016500
0.023846
0.025266
0.022969
0.018911
0.014989
0.011257
0.007100
0.001705
-0.005938
-0.017012
-0.032589
-0.053006
-0.077159
-0.102338
-0.124879
-0.141231
-0.148928
-0.145305
-0.132590
-0.113324
-0.090318
-0.066135
-0.042792
-0.021667
-0.003545
0.011258
0.022741
0.031089
0.036590
0.039626
0.040682
0.040334
0.039166
0.037659
0.036126
0.034666
0.033113
0.031177
0.028512
0.024751
0.019560
0.012684
0.004029
-0.006261
-0.017755
-0.029738
-0.041278
-0.051354
-0.059017
-0.063561
-0.064611
-0.062186
-0.056875
-0.049565
-0.041300
-0.033132
-0.025990
-0.020598
-0.017443
-0.016798
-0.018763
-0.025614
0.458505
0.460504
0.466074
0.474945
0.486457
0.499172
0.510190
0.514191
0.502368
0.461591
0.374768
0.218629
-0.055550
-0.616362
-0.500820
-0.391308
-0.334762
-0.281067
-0.236403
-0.227437
-0.251646
-0.303910
-0.375912
-0.451882
-0.511207
-0.525726
-0.502676
-0.455413
-0.393367
-0.324662
-0.255577
-0.190493
-0.132102
-0.081749
-0.039831
-0.006190
0.019493
0.037469
0.048070
0.052151
0.051256
0.047106
0.041397
0.035347
0.028281
0.019424
0.007742
-0.007952
-0.028551
-0.053950
-0.082474
-0.110921
-0.135316
-0.151936
-0.158293
-0.151863
-0.136266
-0.114325
-0.089069
-0.063169
-0.038647
-0.016806
0.001680
0.016615
0.028113
0.036449
0.041969
0.045061
0.046173
0.045823
0.044553
0.042839
0.040964
0.039078
0.037031
0.034536
0.031241
0.026769
0.020778
0.013020
0.003413
-0.007879
-0.020401
-0.033412
-0.045952
-0.056973
-0.065493
-0.070773
-0.072468
-0.070713
-0.066105
-0.059575
-0.052238
-0.045230
-0.039572
-0.036066
-0.035260
-0.037468
-0.042823
-0.054820
0.448237
0.449394
0.452530
0.457207
0.462529
0.466856
0.467367
0.459526
0.436550
0.389008
0.304512
0.166968
-0.043508
-0.307872
-0.349272
-0.323033
-0.288256
-0.252659
-0.227519
-0.226162
-0.252189
-0.302970
-0.368776
-0.433507
-0.475031
-0.478047
-0.453926
-0.409609
-0.352832
-0.290457
-0.227837
-0.168706
-0.115350
-0.068900
-0.029651
0.002626
0.028387
0.048026
0.061715
0.069610
0.072317
0.070616
0.066016
0.059330
0.050424
0.038867
0.023752
0.004035
-0.020851
-0.050298
-0.082110
-0.112725
-0.137980
-0.154108
-0.158281
-0.149420
-0.131768
-0.108286
-0.082078
-0.055791
-0.031338
-0.009883
0.008048
0.022383
0.033333
0.041245
0.046502
0.049493
0.050620
0.050326
0.049085
0.047331
0.045358
0.043307
0.041039
0.038268
0.034627
0.029729
0.023224
0.014865
0.004587
-0.007427
-0.020696
-0.034460
-0.047742
-0.059480
-0.068685
-0.074613
-0.076959
-0.075984
-0.072290
-0.066833
-0.060772
-0.055301
-0.051496
-0.050209
-0.052029
-0.057298
-0.066182
-0.083453
0.435835
0.436244
0.437250
0.438356
0.438625
0.436493
0.429519
0.414130
0.385442
0.337285
0.262605
0.154865
0.013575
-0.138402
-0.213373
-0.235676
-0.234374
-0.225372
-0.220720
-0.229817
-0.256386
-0.298516
-0.348272
-0.391988
-0.413059
-0.411633
-0.389684
-0.351942
-0.304045
-0.251252
-0.197828
-0.146852
-0.100285
-0.059161
-0.023821
0.005849
0.030211
0.049683
0.064605
0.075222
0.081657
0.084681
0.084159
0.078744
0.069549
0.056611
0.039265
0.016768
-0.011006
-0.042941
-0.076427
-0.107674
-0.132494
-0.147376
-0.148122
-0.137864
-0.119324
-0.095679
-0.069983
-0.044716
-0.021590
-0.001573
0.014965
0.028063
0.038001
0.045161
0.049941
0.052714
0.053837
0.053673
0.052610
0.051007
0.049175
0.047198
0.044956
0.042164
0.038447
0.033399
0.026662
0.017990
0.007328
-0.005117
-0.018847
-0.033081
-0.046836
-0.059050
-0.068750
-0.075210
-0.078180
-0.078045
-0.075417
-0.071274
-0.066800
-0.063210
-0.061595
-0.062814
-0.067457
-0.075883
-0.088291
-0.110759
0.422661
0.422457
0.421736
0.420022
0.416456
0.409692
0.397780
0.378079
0.347289
0.301705
0.237901
0.154247
0.054354
-0.047678
-0.119622
-0.160893
-0.181991
-0.193393
-0.204022
-0.220464
-0.245575
-0.277946
-0.311810
-0.337952
-0.349609
-0.345919
-0.327380
-0.296822
-0.258052
-0.214892
-0.170622
-0.127740
-0.087937
-0.052185
-0.020895
0.005924
0.028510
0.047211
0.062386
0.074322
0.083155
0.089929
0.092096
0.089382
0.081838
0.069354
0.051541
0.028082
-0.000651
-0.033087
-0.066309
-0.096410
-0.119229
-0.131330
-0.129832
-0.118688
-0.100408
-0.077980
-0.054186
-0.031200
-0.010459
0.007281
0.021792
0.033195
0.041801
0.047995
0.052160
0.054643
0.055752
0.055780
0.055023
0.053761
0.052290
0.050603
0.048602
0.046015
0.042455
0.037505
0.030792
0.022069
0.011291
-0.001319
-0.015244
-0.029689
-0.043668
-0.056132
-0.066131
-0.072977
-0.076503
-0.077190
-0.075691
-0.073014
-0.070360
-0.068935
-0.069788
-0.073719
-0.081273
-0.092795
-0.108524
-0.135815
0.409835
0.409157
0.407117
0.403304
0.396994
0.387107
0.372169
0.350322
0.319447
0.277462
0.222928
0.156086
0.080472
0.004383
-0.058686
-0.104843
-0.136995
-0.160400
-0.180420
-0.201187
-0.224569
-0.249691
-0.273072
-0.289681
-0.296428
-0.291911
-0.276409
-0.251687
-0.220317
-0.185048
-0.148382
-0.112327
-0.078326
-0.047277
-0.019621
0.004548
0.025372
0.043120
0.058104
0.070581
0.081139
0.088829
0.092751
0.092285
0.086916
0.076121
0.059471
0.036919
0.009225
-0.021700
-0.052767
-0.080087
-0.099718
-0.108373
-0.105401
-0.094377
-0.077542
-0.057514
-0.036673
-0.016830
0.000860
0.015832
0.027967
0.037435
0.044551
0.049682
0.053178
0.055344
0.056443
0.056702
0.056343
0.055584
0.054620
0.053391
0.051810
0.049607
0.046395
0.041744
0.035267
0.026712
0.016039
0.003485
-0.010415
-0.024858
-0.038854
-0.051369
-0.061481
-0.068523
-0.072477
-0.073881
-0.073464
-0.072299
-0.071608
-0.072552
-0.076072
-0.082829
-0.093245
-0.107609
-0.126207
-0.157536
0.398223
0.397193
0.394191
0.388887
0.380709
0.368829
0.352175
0.329486
0.299448
0.260957
0.213553
0.158027
0.097114
0.035801
-0.019381
-0.065119
-0.101606
-0.131031
-0.156180
-0.179368
-0.201680
-0.222621
-0.240269
-0.252103
-0.256091
-0.251343
-0.238097
-0.217564
-0.191567
-0.162147
-0.131239
-0.100473
-0.071074
-0.043847
-0.019227
0.002653
0.021871
0.038636
0.053208
0.065829
0.076661
0.084894
0.089917
0.091037
0.087545
0.078748
0.064159
0.043825
0.018692
-0.009179
-0.036686
-0.060123
-0.075973
-0.081338
-0.078333
-0.068522
-0.054012
-0.037048
-0.019611
-0.003186
0.011297
0.023414
0.033123
0.040622
0.046233
0.050300
0.053139
0.055011
0.056124
0.056644
0.056712
0.056589
0.056176
0.055502
0.054454
0.052761
0.050028
0.045815
0.039725
0.031497
0.021092
0.008756
-0.004963
-0.019246
-0.033099
-0.045500
-0.055573
-0.062520
-0.066740
-0.068671
-0.069189
-0.069474
-0.070784
-0.074211
-0.080513
-0.090108
-0.103196
-0.119951
-0.140687
-0.174743
0.388467
0.387177
0.383489
0.377163
0.367766
0.354680
0.337140
0.314301
0.285369
0.249797
0.207574
0.159558
0.107768
0.055358
0.006000
-0.037858
-0.075520
-0.107610
-0.135349
-0.159866
-0.181686
-0.200489
-0.215210
-0.224491
-0.226995
-0.222273
-0.210600
-0.192918
-0.170624
-0.145316
-0.118551
-0.091683
-0.065761
-0.041499
-0.019300
0.000693
0.018531
0.034379
0.048450
0.060934
0.071714
0.080288
0.086108
0.088473
0.086606
0.079777
0.067516
0.049933
0.028036
0.003879
-0.019596
-0.039050
-0.051495
-0.055786
-0.053244
-0.045073
-0.033050
-0.019066
-0.004785
0.008540
0.020135
0.029665
0.037143
0.042804
0.046993
0.050061
0.052302
0.053938
0.055120
0.055942
0.056521
0.056914
0.057070
0.056981
0.056510
0.055375
0.053178
0.049471
0.043845
0.036032
0.025987
0.013962
0.000519
-0.013507
-0.027103
-0.039236
-0.049030
-0.055786
-0.059988
-0.062185
-0.063409
-0.064980
-0.068215
-0.074121
-0.083213
-0.095557
-0.111016
-0.129555
-0.151461
-0.186325
0.381047
0.379534
0.375341
0.368328
0.358167
0.344390
0.326444
0.303758
0.275850
0.242476
0.203816
0.160660
0.114525
0.067566
0.022163
-0.019823
-0.057440
-0.090556
-0.119514
-0.144730
-0.166353
-0.184105
-0.197334
-0.205220
-0.206949
-0.202339
-0.191721
-0.175909
-0.156067
-0.133527
-0.109608
-0.085476
-0.062050
-0.039970
-0.019602
-0.001079
0.015641
0.030707
0.044303
0.056575
0.067306
0.076166
0.082654
0.086072
0.085623
0.080564
0.070450
0.055435
0.036534
0.015712
-0.004354
-0.020812
-0.031357
-0.035404
-0.033506
-0.026771
-0.016748
-0.005081
0.006772
0.017707
0.027040
0.034497
0.040130
0.044219
0.047154
0.049325
0.051043
0.052508
0.053827
0.054990
0.056006
0.056861
0.057547
0.058005
0.058074
0.057464
0.055777
0.052561
0.047399
0.040009
0.030342
0.018650
0.005508
-0.008224
-0.021504
-0.033260
-0.042588
-0.049001
-0.052983
-0.055220
-0.056904
-0.059504
-0.064415
-0.072583
-0.084270
-0.099133
-0.116598
-0.136307
-0.158379
-0.191610
0.376373
0.374540
0.369926
0.362454
0.351840
0.337698
0.319600
0.297135
0.269995
0.238088
0.201665
0.161436
0.118615
0.074831
0.031859
-0.008773
-0.046050
-0.079490
-0.108982
-0.134540
-0.156089
-0.173337
-0.185801
-0.192939
-0.194285
-0.189799
-0.179851
-0.165195
-0.146869
-0.126055
-0.103929
-0.081540
-0.059726
-0.039077
-0.019932
-0.002419
0.013500
0.027965
0.041158
0.053254
0.063985
0.073124
0.080181
0.084452
0.085113
0.081400
0.072868
0.059685
0.042865
0.024286
0.006408
-0.008266
-0.017899
-0.021851
-0.020431
-0.014658
-0.005935
0.004242
0.014538
0.023935
0.031802
0.037890
0.042272
0.045247
0.047239
0.048682
0.049935
0.051231
0.052699
0.054099
0.055467
0.056749
0.057890
0.058802
0.059310
0.059124
0.057850
0.055036
0.050258
0.043221
0.033868
0.022451
0.009560
-0.003916
-0.016893
-0.028258
-0.037047
-0.043152
-0.046917
-0.049127
-0.051080
-0.054344
-0.060396
-0.070191
-0.083841
-0.100675
-0.119697
-0.140167
-0.161853
-0.191150
0.375049
0.372296
0.367278
0.359537
0.348709
0.334423
0.316301
0.294005
0.267303
0.236160
0.200847
0.162019
0.120746
0.078427
0.036594
-0.003368
-0.040430
-0.073970
-0.103680
-0.129398
-0.150939
-0.168006
-0.180216
-0.187091
-0.188317
-0.183941
-0.174353
-0.160278
-0.142693
-0.122706
-0.101423
-0.079837
-0.058747
-0.038723
-0.020098
-0.003002
0.012591
0.026799
0.039757
0.051513
0.062259
0.071658
0.079168
0.084037
0.085395
0.082433
0.074679
0.062304
0.046343
0.028678
0.011691
-0.002343
-0.011802
-0.015756
-0.014601
-0.009311
-0.001211
0.008285
0.017906
0.026672
0.033971
0.039556
0.043492
0.046070
0.047708
0.048845
0.049850
0.050945
0.052149
0.053671
0.055295
0.056880
0.058333
0.059549
0.060346
0.060438
0.059431
0.056870
0.052320
0.045474
0.036264
0.024941
0.012116
-0.001282
-0.014130
-0.025336
-0.034121
-0.040197
-0.043949
-0.046230
-0.048345
-0.051859
-0.058257
-0.068522
-0.082793
-0.100359
-0.120092
-0.141034
-0.162681
-0.188405
