# vtk DataFile Version 3.0
Scalar Field
ASCII
DATASET RECTILINEAR_GRID
DIMENSIONS 100 26 1
X_COORDINATES 100 double
0.050000 0.150000 0.250000 0.350000 0.450000 0.550000 0.650000 0.750000 0.850000 0.950000 1.050000 1.150000 1.250000 1.350000 1.450000 1.550000 1.650000 1.750000 1.850000 1.950000 2.050000 2.150000 2.250000 2.350000 2.450000 2.550000 2.650000 2.750000 2.850000 2.950000 3.050000 3.150000 3.250000 3.350000 3.450000 3.550000 3.650000 3.750000 3.850000 3.950000 4.050000 4.150000 4.250000 4.350000 4.450000 4.550000 4.650000 4.750000 4.850000 4.950000 5.050000 5.150000 5.250000 5.350000 5.450000 5.550000 5.650000 5.750000 5.850000 5.950000 6.050000 6.150000 6.250000 6.350000 6.450000 6.550000 6.650000 6.750000 6.850000 6.950000 7.050000 7.150000 7.250000 7.350000 7.450000 7.550000 7.650000 7.750000 7.850000 7.950000 8.050000 8.150000 8.250000 8.350000 8.450000 8.550000 8.650000 8.750000 8.850000 8.950000 9.050000 9.150000 9.250000 9.350000 9.450000 9.550000 9.650000 9.750000 9.850000 9.950000 
Y_COORDINATES 26 double
0.050000 0.150000 0.250000 0.350000 0.450000 0.550000 0.650000 0.750000 0.850000 0.950000 1.050000 1.150000 1.250000 1.350000 1.450000 1.550000 1.650000 1.750000 1.850000 1.950000 2.050000 2.150000 2.250000 2.350000 2.450000 2.550000 
Z_COORDINATES 1 double
0.0
POINT_DATA 2600
SCALARS Skalarfeld double 1
LOOKUP_TABLE default
0.273515
0.258449
0.243877
0.226772
0.206025
0.181209
0.152299
0.119666
0.084114
0.046873
0.009490
-0.026435
-0.059522
-0.088794
-0.113732
-0.134239
-0.150560
-0.162681
-0.171026
-0.175894
-0.177495
-0.175981
-0.171530
-0.164436
-0.155164
-0.144369
-0.132839
-0.121411
-0.110850
-0.101740
-0.094390
-0.088775
-0.084528
-0.081016
-0.077486
-0.073262
-0.067890
-0.061192
-0.053383
-0.043870
-0.034298
-0.025594
-0.018119
-0.011913
-0.006859
-0.002778
0.000511
0.003174
0.005345
0.007130
0.008600
0.009808
0.010784
0.011551
0.012120
0.012503
0.012710
0.012752
0.012641
0.012393
0.012020
0.011540
0.010967
0.010316
0.009598
0.008828
0.008014
0.007165
0.006290
0.005394
0.004482
0.003558
0.002626
0.001688
0.000746
-0.000199
-0.001145
-0.002091
-0.003037
-0.003984
-0.004929
-0.005875
-0.006820
-0.007766
-0.008713
-0.009661
-0.010611
-0.011565
-0.012524
-0.013490
-0.014464
-0.015451
-0.016452
-0.017474
-0.018522
-0.019604
-0.020730
-0.021914
-0.023170
-0.023849
0.264275
0.258016
0.246419
0.230492
0.210122
0.185120
0.155500
0.121645
0.084442
0.045332
0.006182
-0.031126
-0.065073
-0.094690
-0.119550
-0.139648
-0.155191
-0.166820
-0.174922
-0.179719
-0.181393
-0.180025
-0.175703
-0.168640
-0.159259
-0.148209
-0.136306
-0.124427
-0.113382
-0.103792
-0.095990
-0.089962
-0.085338
-0.081472
-0.077603
-0.073058
-0.067362
-0.060132
-0.051114
-0.042016
-0.032984
-0.024763
-0.017655
-0.011710
-0.006833
-0.002869
0.000348
0.002972
0.005127
0.006911
0.008391
0.009614
0.010608
0.011393
0.011980
0.012380
0.012601
0.012655
0.012555
0.012315
0.011951
0.011478
0.010911
0.010265
0.009553
0.008787
0.007977
0.007132
0.006260
0.005367
0.004458
0.003537
0.002607
0.001671
0.000731
-0.000211
-0.001155
-0.002100
-0.003045
-0.003990
-0.004934
-0.005878
-0.006821
-0.007765
-0.008710
-0.009655
-0.010603
-0.011553
-0.012507
-0.013467
-0.014434
-0.015410
-0.016398
-0.017402
-0.018424
-0.019468
-0.020539
-0.021638
-0.022763
-0.023554
0.266590
0.262688
0.252993
0.238114
0.218031
0.192519
0.161462
0.125152
0.084581
0.041598
-0.001178
-0.041230
-0.076778
-0.106917
-0.131467
-0.150759
-0.165409
-0.176193
-0.183737
-0.188614
-0.190768
-0.190078
-0.186383
-0.179677
-0.170252
-0.158722
-0.145939
-0.132850
-0.120338
-0.109091
-0.099504
-0.091625
-0.085170
-0.079601
-0.074267
-0.068566
-0.062061
-0.054544
-0.046132
-0.037491
-0.029476
-0.022245
-0.015940
-0.010611
-0.006188
-0.002548
0.000447
0.002925
0.004992
0.006727
0.008187
0.009407
0.010410
0.011207
0.011809
0.012222
0.012456
0.012521
0.012431
0.012200
0.011843
0.011376
0.010816
0.010176
0.009471
0.008711
0.007907
0.007068
0.006202
0.005314
0.004410
0.003493
0.002568
0.001636
0.000700
-0.000239
-0.001179
-0.002120
-0.003062
-0.004004
-0.004945
-0.005885
-0.006826
-0.007766
-0.008706
-0.009647
-0.010589
-0.011532
-0.012478
-0.013427
-0.014381
-0.015340
-0.016306
-0.017279
-0.018260
-0.019248
-0.020236
-0.021213
-0.022142
-0.022986
0.276124
0.272997
0.264362
0.250244
0.230288
0.203921
0.170630
0.130396
0.084250
0.034686
-0.014052
-0.058270
-0.095902
-0.126333
-0.149907
-0.167522
-0.180346
-0.189598
-0.196289
-0.201027
-0.203979
-0.204436
-0.201792
-0.195663
-0.186134
-0.173793
-0.159584
-0.144587
-0.129811
-0.116045
-0.103775
-0.093153
-0.084032
-0.076036
-0.068690
-0.061539
-0.054259
-0.046722
-0.039037
-0.031543
-0.024606
-0.018420
-0.013072
-0.008542
-0.004751
-0.001596
0.001040
0.003261
0.005151
0.006772
0.008162
0.009344
0.010328
0.011120
0.011721
0.012136
0.012372
0.012439
0.012349
0.012118
0.011761
0.011295
0.010735
0.010097
0.009393
0.008636
0.007835
0.007000
0.006138
0.005255
0.004355
0.003443
0.002522
0.001595
0.000663
-0.000272
-0.001209
-0.002146
-0.003084
-0.004022
-0.004959
-0.005896
-0.006833
-0.007768
-0.008703
-0.009639
-0.010574
-0.011509
-0.012445
-0.013383
-0.014321
-0.015261
-0.016202
-0.017144
-0.018083
-0.019016
-0.019933
-0.020816
-0.021633
-0.022472
0.291410
0.288689
0.280870
0.267529
0.247813
0.220498
0.184254
0.138271
0.083332
0.022753
-0.035330
-0.085193
-0.124855
-0.154616
-0.175818
-0.190236
-0.199817
-0.206465
-0.211768
-0.216592
-0.220825
-0.223265
-0.222337
-0.217003
-0.207083
-0.193253
-0.176729
-0.158889
-0.140978
-0.123951
-0.108410
-0.094614
-0.082535
-0.071947
-0.062521
-0.053931
-0.045924
-0.038370
-0.031274
-0.024741
-0.018894
-0.013800
-0.009464
-0.005808
-0.002737
-0.000150
0.002044
0.003933
0.005584
0.007040
0.008322
0.009437
0.010382
0.011151
0.011739
0.012144
0.012372
0.012430
0.012332
0.012092
0.011727
0.011253
0.010688
0.010044
0.009337
0.008578
0.007777
0.006942
0.006081
0.005200
0.004303
0.003394
0.002476
0.001553
0.000624
-0.000307
-0.001240
-0.002174
-0.003108
-0.004042
-0.004976
-0.005909
-0.006841
-0.007772
-0.008702
-0.009631
-0.010559
-0.011486
-0.012412
-0.013336
-0.014260
-0.015181
-0.016098
-0.017010
-0.017912
-0.018799
-0.019661
-0.020482
-0.021242
-0.022066
0.311680
0.309371
0.302574
0.290498
0.271688
0.243934
0.204420
0.150510
0.081774
0.001901
-0.070408
-0.126691
-0.166876
-0.193616
-0.209919
-0.218704
-0.222884
-0.225290
-0.228443
-0.233844
-0.240921
-0.247079
-0.249215
-0.245159
-0.234424
-0.218060
-0.197918
-0.175957
-0.153831
-0.132730
-0.113384
-0.096131
-0.081016
-0.067888
-0.056500
-0.046581
-0.037895
-0.030270
-0.023601
-0.017832
-0.012925
-0.008824
-0.005442
-0.002667
-0.000374
0.001574
0.003293
0.004816
0.006197
0.007462
0.008618
0.009652
0.010548
0.011286
0.011853
0.012241
0.012453
0.012495
0.012380
0.012123
0.011741
0.011253
0.010674
0.010020
0.009304
0.008538
0.007733
0.006895
0.006033
0.005151
0.004255
0.003348
0.002433
0.001511
0.000586
-0.000342
-0.001272
-0.002203
-0.003134
-0.004064
-0.004994
-0.005923
-0.006850
-0.007776
-0.008701
-0.009624
-0.010544
-0.011463
-0.012379
-0.013292
-0.014200
-0.015104
-0.016000
-0.016886
-0.017757
-0.018608
-0.019430
-0.020211
-0.020938
-0.021752
0.336160
0.334439
0.329232
0.319467
0.303071
0.276547
0.234611
0.170640
0.079807
-0.036646
-0.128919
-0.188922
-0.224826
-0.244112
-0.251768
-0.251624
-0.247488
-0.243170
-0.242639
-0.248935
-0.261613
-0.275296
-0.282895
-0.281006
-0.268883
-0.248581
-0.223202
-0.195662
-0.168183
-0.142226
-0.118618
-0.097718
-0.079569
-0.064024
-0.050836
-0.039727
-0.030428
-0.022702
-0.016350
-0.011199
-0.007095
-0.003882
-0.001396
0.000534
0.002077
0.003387
0.004591
0.005752
0.006861
0.007937
0.008970
0.009931
0.010783
0.011494
0.012041
0.012412
0.012603
0.012623
0.012484
0.012203
0.011798
0.011288
0.010690
0.010020
0.009290
0.008514
0.007701
0.006858
0.005992
0.005108
0.004211
0.003305
0.002390
0.001471
0.000548
-0.000378
-0.001305
-0.002233
-0.003160
-0.004087
-0.005013
-0.005938
-0.006861
-0.007783
-0.008702
-0.009619
-0.010533
-0.011443
-0.012350
-0.013251
-0.014147
-0.015034
-0.015911
-0.016776
-0.017622
-0.018446
-0.019239
-0.019994
-0.020702
-0.021511
0.363752
0.362885
0.360100
0.354233
0.342831
0.321154
0.280479
0.206206
0.078376
-0.113629
-0.225768
-0.275652
-0.297133
-0.303130
-0.298526
-0.286530
-0.271479
-0.257436
-0.250085
-0.255781
-0.275386
-0.302444
-0.320337
-0.321928
-0.307748
-0.282050
-0.250035
-0.215907
-0.182481
-0.151403
-0.123499
-0.099069
-0.078092
-0.060368
-0.045604
-0.033475
-0.023657
-0.015845
-0.009757
-0.005136
-0.001740
0.000667
0.002320
0.003452
0.004278
0.004984
0.005706
0.006534
0.007402
0.008325
0.009272
0.010192
0.011029
0.011734
0.012275
0.012634
0.012807
0.012802
0.012635
0.012324
0.011890
0.011353
0.010730
0.010039
0.009292
0.008502
0.007678
0.006827
0.005956
0.005069
0.004170
0.003263
0.002349
0.001430
0.000509
-0.000414
-0.001339
-0.002263
-0.003188
-0.004112
-0.005034
-0.005955
-0.006874
-0.007791
-0.008706
-0.009617
-0.010524
-0.011428
-0.012326
-0.013217
-0.014101
-0.014975
-0.015836
-0.016683
-0.017510
-0.018314
-0.019087
-0.019825
-0.020521
-0.021329
0.392868
0.393128
0.393648
0.393522
0.390597
0.379917
0.349980
0.273967
0.084429
-0.280302
-0.374341
-0.374829
-0.369884
-0.360212
-0.343712
-0.320145
-0.295480
-0.271228
-0.252910
-0.253856
-0.276354
-0.313928
-0.350459
-0.357825
-0.341378
-0.309847
-0.271306
-0.231241
-0.192820
-0.157641
-0.126392
-0.099255
-0.076131
-0.056767
-0.040833
-0.027966
-0.017800
-0.009979
-0.004167
-0.000043
0.002699
0.004361
0.005243
0.005637
0.005809
0.005979
0.006308
0.006858
0.007565
0.008422
0.009369
0.010324
0.011206
0.011950
0.012515
0.012879
0.013043
0.013016
0.012819
0.012475
0.012007
0.011438
0.010787
0.010071
0.009305
0.008498
0.007661
0.006801
0.005923
0.005031
0.004130
0.003221
0.002307
0.001390
0.000470
-0.000452
-0.001374
-0.002296
-0.003217
-0.004138
-0.005057
-0.005975
-0.006890
-0.007803
-0.008713
-0.009619
-0.010521
-0.011417
-0.012308
-0.013191
-0.014065
-0.014927
-0.015777
-0.016609
-0.017422
-0.018211
-0.018971
-0.019698
-0.020388
-0.021196
0.421421
0.422969
0.427355
0.434345
0.443098
0.450851
0.448719
0.406650
0.188236
-0.590271
-0.549096
-0.438705
-0.414257
-0.397788
-0.375118
-0.348320
-0.318960
-0.291454
-0.269868
-0.265474
-0.282257
-0.316307
-0.353447
-0.373972
-0.356191
-0.320161
-0.277475
-0.234371
-0.193879
-0.157212
-0.124796
-0.096688
-0.072754
-0.052753
-0.036378
-0.023283
-0.013105
-0.005480
-0.000048
0.003539
0.005631
0.006581
0.006748
0.006481
0.006094
0.005846
0.005916
0.006301
0.007004
0.007966
0.009071
0.010193
0.011222
0.012079
0.012715
0.013116
0.013286
0.013244
0.013020
0.012642
0.012138
0.011534
0.010852
0.010110
0.009321
0.008497
0.007646
0.006776
0.005890
0.004994
0.004089
0.003179
0.002265
0.001348
0.000429
-0.000491
-0.001410
-0.002330
-0.003249
-0.004167
-0.005083
-0.005997
-0.006909
-0.007818
-0.008724
-0.009625
-0.010522
-0.011413
-0.012297
-0.013173
-0.014039
-0.014894
-0.015733
-0.016556
-0.017358
-0.018137
-0.018889
-0.019609
-0.020295
-0.021107
0.447042
0.449802
0.457870
0.471854
0.492799
0.522127
0.561062
0.607189
0.696653
0.053191
-0.487099
-0.425102
-0.418704
-0.415683
-0.397166
-0.372474
-0.347761
-0.325649
-0.309895
-0.303751
-0.311085
-0.328596
-0.347587
-0.355924
-0.343025
-0.306505
-0.263125
-0.220750
-0.181980
-0.147190
-0.116443
-0.089673
-0.066758
-0.047537
-0.031797
-0.019271
-0.009655
-0.002622
0.002164
0.005051
0.006406
0.006621
0.006103
0.005255
0.004439
0.003942
0.003958
0.004402
0.005387
0.006725
0.008219
0.009690
0.011001
0.012063
0.012834
0.013309
0.013508
0.013464
0.013217
0.012807
0.012267
0.011629
0.010915
0.010146
0.009335
0.008493
0.007628
0.006748
0.005855
0.004954
0.004047
0.003135
0.002221
0.001304
0.000387
-0.000531
-0.001449
-0.002366
-0.003282
-0.004197
-0.005111
-0.006022
-0.006931
-0.007836
-0.008739
-0.009637
-0.010529
-0.011416
-0.012296
-0.013166
-0.014026
-0.014874
-0.015707
-0.016523
-0.017318
-0.018091
-0.018837
-0.019554
-0.020239
-0.021055
0.467508
0.471130
0.481796
0.500640
0.529842
0.573222
0.637447
0.733592
0.864909
0.888485
0.000000
-0.418786
-0.412470
-0.409246
-0.403252
-0.396016
-0.388002
-0.381208
-0.378376
-0.374241
-0.368874
-0.361592
-0.349785
-0.333245
-0.304692
-0.269097
-0.229506
-0.190633
-0.156795
-0.126733
-0.100220
-0.077027
-0.057033
-0.040172
-0.026356
-0.015434
-0.007195
-0.001386
0.002279
0.004120
0.004505
0.003856
0.002629
0.001280
0.000216
-0.000263
-0.000045
0.000982
0.002667
0.004707
0.006831
0.008824
0.010538
0.011889
0.012850
0.013435
0.013685
0.013651
0.013390
0.012951
0.012379
0.011708
0.010965
0.010170
0.009338
0.008480
0.007603
0.006714
0.005815
0.004910
0.004000
0.003088
0.002173
0.001258
0.000342
-0.000574
-0.001489
-0.002404
-0.003318
-0.004230
-0.005141
-0.006050
-0.006956
-0.007859
-0.008758
-0.009653
-0.010543
-0.011426
-0.012302
-0.013169
-0.014026
-0.014869
-0.015698
-0.016510
-0.017301
-0.018070
-0.018814
-0.019530
-0.020217
-0.021037
0.481245
0.485204
0.496828
0.517231
0.548370
0.593139
0.654883
0.735593
0.829932
0.912062
0.816917
0.000000
-0.409263
-0.406056
-0.408155
-0.419651
-0.437587
-0.456595
-0.472160
-0.472862
-0.450354
-0.412317
-0.366120
-0.317390
-0.268380
-0.224274
-0.182425
-0.149210
-0.120881
-0.096938
-0.076289
-0.058326
-0.042805
-0.029731
-0.019133
-0.010965
-0.005105
-0.001375
0.000459
0.000692
-0.000295
-0.002034
-0.004007
-0.005696
-0.006675
-0.006692
-0.005546
-0.003411
-0.000682
0.002278
0.005168
0.007765
0.009932
0.011602
0.012773
0.013483
0.013795
0.013781
0.013513
0.013054
0.012455
0.011756
0.010988
0.010172
0.009324
0.008452
0.007566
0.006670
0.005767
0.004859
0.003949
0.003036
0.002123
0.001209
0.000295
-0.000619
-0.001532
-0.002445
-0.003356
-0.004266
-0.005174
-0.006080
-0.006984
-0.007885
-0.008782
-0.009675
-0.010563
-0.011444
-0.012318
-0.013183
-0.014038
-0.014879
-0.015707
-0.016517
-0.017307
-0.018076
-0.018819
-0.019537
-0.020226
-0.021051
0.487641
0.491412
0.502396
0.521366
0.549634
0.588740
0.639751
0.700245
0.755649
0.770699
0.721772
0.600145
0.000000
-0.412106
-0.418156
-0.450274
-0.495623
-0.544024
-0.579091
-0.578025
-0.534035
-0.465275
-0.386603
-0.308878
-0.239299
-0.181972
-0.135077
-0.101455
-0.077393
-0.059844
-0.045682
-0.033827
-0.023743
-0.015494
-0.009218
-0.004937
-0.002564
-0.001944
-0.002846
-0.004939
-0.007768
-0.010772
-0.013360
-0.014990
-0.015314
-0.013897
-0.011211
-0.007730
-0.003865
0.000018
0.003632
0.006777
0.009341
0.011288
0.012639
0.013457
0.013825
0.013833
0.013564
0.013092
0.012476
0.011759
0.010974
0.010144
0.009284
0.008405
0.007513
0.006613
0.005708
0.004800
0.003890
0.002979
0.002068
0.001156
0.000244
-0.000667
-0.001578
-0.002487
-0.003396
-0.004304
-0.005210
-0.006114
-0.007016
-0.007915
-0.008811
-0.009702
-0.010589
-0.011470
-0.012343
-0.013208
-0.014062
-0.014904
-0.015732
-0.016543
-0.017335
-0.018105
-0.018851
-0.019572
-0.020264
-0.021095
0.487059
0.490295
0.499635
0.515456
0.538169
0.567814
0.602946
0.638157
0.659976
0.643548
0.571019
0.478518
0.305829
0.000000
-0.465082
-0.512008
-0.550807
-0.616876
-0.666742
-0.654633
-0.590915
-0.498930
-0.396961
-0.298312
-0.211687
-0.141913
-0.089815
-0.054329
-0.031843
-0.018203
-0.010267
-0.004662
-0.000258
0.002674
0.003841
0.003233
0.001014
-0.002563
-0.007142
-0.012226
-0.017178
-0.021303
-0.024018
-0.024884
-0.023208
-0.019896
-0.015686
-0.010983
-0.006172
-0.001577
0.002558
0.006073
0.008894
0.011012
0.012474
0.013358
0.013762
0.013787
0.013523
0.013048
0.012426
0.011702
0.010911
0.010077
0.009214
0.008333
0.007440
0.006541
0.005638
0.004732
0.003825
0.002916
0.002008
0.001099
0.000191
-0.000718
-0.001625
-0.002532
-0.003439
-0.004344
-0.005248
-0.006150
-0.007051
-0.007949
-0.008844
-0.009735
-0.010621
-0.011503
-0.012377
-0.013243
-0.014099
-0.014944
-0.015774
-0.016589
-0.017384
-0.018159
-0.018910
-0.019634
-0.020331
-0.021168
0.480489
0.482945
0.489923
0.501388
0.517040
0.535831
0.555031
0.568644
0.565465
0.527872
0.437978
0.287354
0.133141
-0.305789
-0.563771
-0.506962
-0.560109
-0.645850
-0.700946
-0.671609
-0.595297
-0.492743
-0.381984
-0.276005
-0.183158
-0.108059
-0.052147
-0.014324
0.008472
0.020365
0.025643
0.025996
0.025505
0.023394
0.019137
0.012928
0.005231
-0.003394
-0.012268
-0.020564
-0.027364
-0.031877
-0.033844
-0.031974
-0.028231
-0.023463
-0.018129
-0.012615
-0.007248
-0.002290
0.002072
0.005723
0.008622
0.010785
0.012273
0.013175
0.013592
0.013628
0.013374
0.012908
0.012294
0.011578
0.010794
0.009965
0.009108
0.008233
0.007346
0.006453
0.005555
0.004654
0.003751
0.002847
0.001943
0.001038
0.000134
-0.000771
-0.001675
-0.002579
-0.003483
-0.004386
-0.005288
-0.006189
-0.007088
-0.007986
-0.008880
-0.009772
-0.010660
-0.011542
-0.012419
-0.013288
-0.014148
-0.014997
-0.015833
-0.016653
-0.017455
-0.018236
-0.018994
-0.019725
-0.020428
-0.021270
0.469377
0.470952
0.475326
0.482177
0.490750
0.499444
0.505142
0.502269
0.481746
0.430111
0.329578
0.156340
-0.140183
-0.744720
-0.620580
-0.514340
-0.561275
-0.635911
-0.656667
-0.621865
-0.547509
-0.451186
-0.347991
-0.248940
-0.161107
-0.088385
-0.032312
0.007208
0.031665
0.044276
0.049477
0.050443
0.047938
0.042309
0.033118
0.021324
0.008060
-0.005557
-0.018335
-0.029031
-0.036491
-0.039996
-0.038302
-0.034636
-0.029739
-0.024182
-0.018366
-0.012605
-0.007156
-0.002218
0.002071
0.005633
0.008450
0.010550
0.011998
0.012881
0.013298
0.013345
0.013110
0.012668
0.012077
0.011383
0.010619
0.009809
0.008967
0.008106
0.007231
0.006347
0.005458
0.004565
0.003670
0.002772
0.001874
0.000974
0.000074
-0.000826
-0.001727
-0.002628
-0.003529
-0.004430
-0.005330
-0.006230
-0.007128
-0.008025
-0.008921
-0.009813
-0.010703
-0.011588
-0.012468
-0.013342
-0.014208
-0.015063
-0.015907
-0.016736
-0.017547
-0.018338
-0.019104
-0.019844
-0.020554
-0.021403
0.455353
0.456075
0.457966
0.460558
0.462897
0.463241
0.458630
0.444344
0.413362
0.355861
0.258692
0.104616
-0.128544
-0.422670
-0.479671
-0.485989
-0.523356
-0.560134
-0.561505
-0.529207
-0.468642
-0.390701
-0.306170
-0.223600
-0.148858
-0.085417
-0.034879
0.002549
0.027865
0.043286
0.051600
0.056911
0.057387
0.050657
0.038596
0.023287
0.006551
-0.009874
-0.024238
-0.035109
-0.040478
-0.040085
-0.037281
-0.033030
-0.027945
-0.022451
-0.016856
-0.011408
-0.006305
-0.001705
0.002285
0.005603
0.008237
0.010214
0.011591
0.012445
0.012864
0.012934
0.012733
0.012330
0.011778
0.011122
0.010391
0.009610
0.008793
0.007952
0.007095
0.006227
0.005350
0.004468
0.003581
0.002692
0.001800
0.000907
0.000012
-0.000884
-0.001781
-0.002678
-0.003576
-0.004475
-0.005373
-0.006272
-0.007170
-0.008067
-0.008963
-0.009858
-0.010750
-0.011639
-0.012524
-0.013404
-0.014277
-0.015142
-0.015996
-0.016836
-0.017660
-0.018463
-0.019242
-0.019993
-0.020712
-0.021567
0.439998
0.439969
0.439703
0.438701
0.436006
0.429999
0.418153
0.396768
0.360772
0.303694
0.217944
0.096179
-0.063213
-0.238053
-0.336146
-0.389460
-0.429513
-0.453166
-0.452922
-0.429905
-0.386606
-0.329417
-0.265564
-0.201369
-0.141570
-0.089255
-0.046065
-0.012447
0.012172
0.029230
0.040722
0.047897
0.048827
0.043363
0.032588
0.018222
0.002323
-0.012872
-0.025210
-0.032621
-0.034990
-0.034454
-0.032024
-0.028404
-0.024069
-0.019356
-0.014520
-0.009770
-0.005280
-0.001193
0.002391
0.005406
0.007832
0.009682
0.010997
0.011840
0.012281
0.012395
0.012248
0.011903
0.011408
0.010802
0.010117
0.009374
0.008590
0.007777
0.006942
0.006093
0.005232
0.004362
0.003487
0.002607
0.001723
0.000837
-0.000052
-0.000943
-0.001835
-0.002729
-0.003624
-0.004520
-0.005417
-0.006315
-0.007213
-0.008111
-0.009008
-0.009905
-0.010801
-0.011695
-0.012586
-0.013473
-0.014356
-0.015231
-0.016098
-0.016953
-0.017793
-0.018613
-0.019409
-0.020174
-0.020904
-0.021767
0.424707
0.424052
0.422021
0.418166
0.411648
0.401110
0.384556
0.359265
0.321809
0.268293
0.194992
0.099867
-0.013966
-0.132900
-0.223559
-0.286052
-0.328740
-0.352815
-0.357669
-0.344818
-0.316396
-0.276554
-0.230187
-0.181897
-0.135403
-0.093343
-0.057300
-0.027920
-0.005062
0.012029
0.024453
0.032032
0.034191
0.031053
0.023418
0.012698
0.000738
-0.010446
-0.019032
-0.024116
-0.026498
-0.026728
-0.025389
-0.022958
-0.019791
-0.016165
-0.012299
-0.008385
-0.004585
-0.001041
0.002137
0.004874
0.007127
0.008890
0.010185
0.011053
0.011550
0.011736
0.011668
0.011400
0.010977
0.010436
0.009806
0.009111
0.008366
0.007585
0.006777
0.005949
0.005106
0.004252
0.003389
0.002519
0.001645
0.000766
-0.000117
-0.001002
-0.001890
-0.002780
-0.003672
-0.004566
-0.005461
-0.006358
-0.007256
-0.008154
-0.009054
-0.009954
-0.010854
-0.011753
-0.012651
-0.013548
-0.014441
-0.015330
-0.016212
-0.017086
-0.017946
-0.018788
-0.019605
-0.020391
-0.021136
-0.022007
0.410639
0.409472
0.406029
0.399980
0.390668
0.377045
0.357626
0.330512
0.293508
0.244435
0.181726
0.105483
0.019125
-0.069073
-0.144959
-0.203778
-0.246036
-0.272149
-0.282370
-0.277901
-0.260749
-0.233909
-0.200864
-0.165008
-0.129240
-0.095756
-0.066005
-0.040743
-0.020140
-0.003950
0.008264
0.016283
0.019947
0.019467
0.015456
0.008950
0.001283
-0.006147
-0.012185
-0.016391
-0.018849
-0.019772
-0.019452
-0.018168
-0.016157
-0.013616
-0.010718
-0.007624
-0.004483
-0.001435
0.001399
0.003923
0.006073
0.007815
0.009148
0.010092
0.010686
0.010976
0.011012
0.010840
0.010504
0.010038
0.009472
0.008829
0.008128
0.007383
0.006604
0.005799
0.004976
0.004138
0.003289
0.002430
0.001565
0.000694
-0.000181
-0.001061
-0.001944
-0.002830
-0.003719
-0.004610
-0.005504
-0.006400
-0.007298
-0.008198
-0.009099
-0.010002
-0.010907
-0.011812
-0.012718
-0.013625
-0.014531
-0.015435
-0.016336
-0.017231
-0.018117
-0.018987
-0.019834
-0.020648
-0.021416
-0.022297
0.398741
0.397126
0.392513
0.384754
0.373413
0.357734
0.336663
0.308925
0.273174
0.228277
0.173758
0.110437
0.041167
-0.028783
-0.092223
-0.144770
-0.184762
-0.211688
-0.225595
-0.227147
-0.218033
-0.200527
-0.177223
-0.150698
-0.123226
-0.096613
-0.072138
-0.050573
-0.032266
-0.017268
-0.005498
0.002957
0.008001
0.009833
0.008882
0.005835
0.001565
-0.003022
-0.007260
-0.010601
-0.012934
-0.014284
-0.014745
-0.014435
-0.013462
-0.011931
-0.009944
-0.007613
-0.005066
-0.002438
0.000137
0.002540
0.004674
0.006477
0.007917
0.008992
0.009725
0.010151
0.010312
0.010252
0.010013
0.009629
0.009131
0.008543
0.007887
0.007179
0.006429
0.005649
0.004846
0.004024
0.003189
0.002342
0.001487
0.000624
-0.000245
-0.001118
-0.001996
-0.002879
-0.003764
-0.004653
-0.005546
-0.006441
-0.007339
-0.008240
-0.009144
-0.010050
-0.010959
-0.011871
-0.012785
-0.013702
-0.014622
-0.015543
-0.016465
-0.017387
-0.018303
-0.019210
-0.020097
-0.020952
-0.021753
-0.022647
0.389844
0.387731
0.381996
0.372793
0.359914
0.342841
0.320838
0.293063
0.258718
0.217274
0.168779
0.114226
0.055879
-0.002685
-0.057119
-0.103997
-0.141276
-0.168007
-0.183992
-0.189524
-0.185921
-0.174953
-0.158631
-0.138972
-0.117787
-0.096555
-0.076368
-0.057951
-0.041716
-0.027864
-0.016481
-0.007639
-0.001436
0.002233
0.003634
0.003186
0.001453
-0.001087
-0.003808
-0.006328
-0.008450
-0.010081
-0.011179
-0.011728
-0.011714
-0.011133
-0.010002
-0.008372
-0.006339
-0.004034
-0.001611
0.000780
0.003004
0.004958
0.006576
0.007835
0.008742
0.009326
0.009625
0.009683
0.009541
0.009239
0.008807
0.008272
0.007659
0.006984
0.006263
0.005506
0.004721
0.003915
0.003093
0.002257
0.001411
0.000557
-0.000305
-0.001173
-0.002046
-0.002924
-0.003807
-0.004694
-0.005584
-0.006479
-0.007377
-0.008279
-0.009185
-0.010095
-0.011009
-0.011927
-0.012850
-0.013778
-0.014711
-0.015651
-0.016596
-0.017546
-0.018499
-0.019451
-0.020393
-0.021309
-0.022167
-0.023075
0.384882
0.381892
0.374772
0.364156
0.350006
0.331926
0.309367
0.281762
0.248641
0.209811
0.165556
0.116859
0.065545
0.014234
-0.034045
-0.076586
-0.111424
-0.137513
-0.154482
-0.162472
-0.162499
-0.155983
-0.144550
-0.129830
-0.113295
-0.096156
-0.079330
-0.063452
-0.048935
-0.036035
-0.024925
-0.015739
-0.008575
-0.003435
-0.000222
0.001272
0.001316
0.000360
-0.001209
-0.003088
-0.005054
-0.006943
-0.008619
-0.009955
-0.010828
-0.011122
-0.010764
-0.009740
-0.008112
-0.006015
-0.003627
-0.001140
0.001275
0.003458
0.005305
0.006777
0.007870
0.008611
0.009040
0.009204
0.009149
0.008916
0.008538
0.008046
0.007466
0.006819
0.006120
0.005381
0.004612
0.003819
0.003008
0.002182
0.001344
0.000496
-0.000359
-0.001222
-0.002091
-0.002965
-0.003845
-0.004729
-0.005618
-0.006512
-0.007411
-0.008314
-0.009222
-0.010135
-0.011053
-0.011977
-0.012908
-0.013847
-0.014795
-0.015752
-0.016721
-0.017702
-0.018696
-0.019702
-0.020715
-0.021721
-0.022688
-0.023594
0.385502
0.380074
0.370822
0.358655
0.343392
0.324543
0.301610
0.274171
0.241943
0.204902
0.163430
0.118453
0.071509
0.024680
-0.019664
-0.059268
-0.092193
-0.117707
-0.135083
-0.144503
-0.146779
-0.143103
-0.134849
-0.123397
-0.109989
-0.095650
-0.081163
-0.067088
-0.053812
-0.041611
-0.030693
-0.021239
-0.013394
-0.007256
-0.002847
-0.000090
0.001202
0.001292
0.000469
-0.000998
-0.002877
-0.004962
-0.007058
-0.008965
-0.010480
-0.011409
-0.011607
-0.011011
-0.009658
-0.007682
-0.005285
-0.002691
-0.000077
0.002330
0.004378
0.006025
0.007264
0.008122
0.008644
0.008882
0.008889
0.008708
0.008366
0.007900
0.007341
0.006710
0.006024
0.005296
0.004536
0.003752
0.002948
0.002128
0.001296
0.000453
-0.000398
-0.001257
-0.002123
-0.002994
-0.003872
-0.004755
-0.005643
-0.006537
-0.007436
-0.008340
-0.009250
-0.010166
-0.011089
-0.012019
-0.012957
-0.013905
-0.014864
-0.015838
-0.016829
-0.017839
-0.018873
-0.019935
-0.021027
-0.022153
-0.023311
-0.024149
0.396182
0.381919
0.369568
0.356040
0.339947
0.320577
0.297423
0.270094
0.238377
0.202309
0.162294
0.119199
0.074409
0.029760
-0.012686
-0.050982
-0.083660
-0.109018
-0.126569
-0.136580
-0.139796
-0.137305
-0.130367
-0.120253
-0.108114
-0.094909
-0.081376
-0.068057
-0.055340
-0.043510
-0.032794
-0.023387
-0.015451
-0.009102
-0.004383
-0.001246
0.000451
0.000925
0.000427
-0.000794
-0.002508
-0.004504
-0.006576
-0.008513
-0.010100
-0.011136
-0.011464
-0.011009
-0.009794
-0.007940
-0.005643
-0.003129
-0.000631
0.001772
0.003925
0.005676
0.006995
0.007910
0.008473
0.008739
0.008761
0.008585
0.008261
0.007813
0.007269
0.006650
0.005974
0.005254
0.004501
0.003721
0.002921
0.002105
0.001276
0.000436
-0.000414
-0.001271
-0.002136
-0.003006
-0.003883
-0.004765
-0.005653
-0.006546
-0.007445
-0.008351
-0.009264
-0.010184
-0.011109
-0.012042
-0.012984
-0.013937
-0.014904
-0.015887
-0.016890
-0.017919
-0.018978
-0.020076
-0.021223
-0.022431
-0.023716
-0.024429
