# vtk DataFile Version 3.0
Vector Field
ASCII
DATASET RECTILINEAR_GRID
DIMENSIONS 100 26 1
X_COORDINATES 100 double
0.050000 0.150000 0.250000 0.350000 0.450000 0.550000 0.650000 0.750000 0.850000 0.950000 1.050000 1.150000 1.250000 1.350000 1.450000 1.550000 1.650000 1.750000 1.850000 1.950000 2.050000 2.150000 2.250000 2.350000 2.450000 2.550000 2.650000 2.750000 2.850000 2.950000 3.050000 3.150000 3.250000 3.350000 3.450000 3.550000 3.650000 3.750000 3.850000 3.950000 4.050000 4.150000 4.250000 4.350000 4.450000 4.550000 4.650000 4.750000 4.850000 4.950000 5.050000 5.150000 5.250000 5.350000 5.450000 5.550000 5.650000 5.750000 5.850000 5.950000 6.050000 6.150000 6.250000 6.350000 6.450000 6.550000 6.650000 6.750000 6.850000 6.950000 7.050000 7.150000 7.250000 7.350000 7.450000 7.550000 7.650000 7.750000 7.850000 7.950000 8.050000 8.150000 8.250000 8.350000 8.450000 8.550000 8.650000 8.750000 8.850000 8.950000 9.050000 9.150000 9.250000 9.350000 9.450000 9.550000 9.650000 9.750000 9.850000 9.950000 
Y_COORDINATES 26 double
0.050000 0.150000 0.250000 0.350000 0.450000 0.550000 0.650000 0.750000 0.850000 0.950000 1.050000 1.150000 1.250000 1.350000 1.450000 1.550000 1.650000 1.750000 1.850000 1.950000 2.050000 2.150000 2.250000 2.350000 2.450000 2.550000 
Z_COORDINATES 1 double
0.0
POINT_DATA 2600
VECTORS Vektorfeld double
0.997757 0.002243 0.0
0.993317 0.002198 0.0
0.990496 0.000624 0.0
0.991434 -0.001562 0.0
0.996938 -0.003942 0.0
1.007115 -0.006234 0.0
1.021520 -0.008170 0.0
1.039171 -0.009481 0.0
1.058585 -0.009933 0.0
1.077913 -0.009396 0.0
1.095221 -0.007913 0.0
1.108820 -0.005686 0.0
1.117518 -0.003012 0.0
1.120774 -0.000244 0.0
1.118696 0.002322 0.0
1.111766 0.004607 0.0
1.100663 0.006496 0.0
1.086262 0.007904 0.0
1.069578 0.008780 0.0
1.051688 0.009110 0.0
1.033654 0.008923 0.0
1.016432 0.008299 0.0
1.000764 0.007369 0.0
0.987078 0.006317 0.0
0.975380 0.005380 0.0
0.965179 0.004821 0.0
0.955470 0.004889 0.0
0.944824 0.005757 0.0
0.931597 0.007469 0.0
0.914207 0.009921 0.0
0.891392 0.012894 0.0
0.862386 0.016112 0.0
0.826988 0.019285 0.0
0.785557 0.022145 0.0
0.738951 0.024461 0.0
0.688443 0.026047 0.0
0.635642 0.026754 0.0
0.582412 0.026476 0.0
0.530791 0.025146 0.0
0.482918 0.022727 0.0
0.441090 0.019101 0.0
0.408104 0.013885 0.0
0.387479 0.006740 0.0
0.381733 -0.000994 0.0
0.388613 -0.005887 0.0
0.402782 -0.008282 0.0
0.420179 -0.009115 0.0
0.438305 -0.009011 0.0
0.455655 -0.008339 0.0
0.471296 -0.007301 0.0
0.484606 -0.006009 0.0
0.495163 -0.004548 0.0
0.502738 -0.003027 0.0
0.507337 -0.001572 0.0
0.509075 -0.000167 0.0
0.507460 0.001782 0.0
0.501266 0.004412 0.0
0.489437 0.007417 0.0
0.471586 0.010434 0.0
0.448268 0.012884 0.0
0.421344 0.014040 0.0
0.393937 0.013367 0.0
0.369548 0.011023 0.0
0.350578 0.007948 0.0
0.337351 0.005279 0.0
0.328491 0.003581 0.0
0.322262 0.002648 0.0
0.317675 0.001938 0.0
0.314626 0.001110 0.0
0.313296 0.000220 0.0
0.313578 -0.000502 0.0
0.315048 -0.000968 0.0
0.317176 -0.001160 0.0
0.319503 -0.001167 0.0
0.321682 -0.001013 0.0
0.323417 -0.000722 0.0
0.324453 -0.000314 0.0
0.324479 0.000288 0.0
0.323091 0.001100 0.0
0.320102 0.001889 0.0
0.315811 0.002401 0.0
0.310913 0.002497 0.0
0.306302 0.002113 0.0
0.302866 0.001323 0.0
0.301111 0.000432 0.0
0.300827 -0.000147 0.0
0.301299 -0.000326 0.0
0.301945 -0.000321 0.0
0.302532 -0.000266 0.0
0.303002 -0.000205 0.0
0.303356 -0.000148 0.0
0.303613 -0.000109 0.0
0.303853 -0.000130 0.0
0.304239 -0.000256 0.0
0.304969 -0.000475 0.0
0.306203 -0.000759 0.0
0.308088 -0.001125 0.0
0.310654 -0.001441 0.0
0.313642 -0.001547 0.0
0.316532 -0.001343 0.0
1.003053 0.001432 0.0
1.011912 -0.001411 0.0
1.025702 -0.006736 0.0
1.043763 -0.013201 0.0
1.065975 -0.020020 0.0
1.092166 -0.026524 0.0
1.121878 -0.031997 0.0
1.154240 -0.035667 0.0
1.187912 -0.036832 0.0
1.221156 -0.035068 0.0
1.252118 -0.030512 0.0
1.279228 -0.023796 0.0
1.301423 -0.015795 0.0
1.318120 -0.007414 0.0
1.329104 0.000586 0.0
1.334655 0.007723 0.0
1.335502 0.013638 0.0
1.332599 0.018066 0.0
1.327048 0.020853 0.0
1.320017 0.021959 0.0
1.312646 0.021480 0.0
1.305957 0.019653 0.0
1.300764 0.016875 0.0
1.297556 0.013705 0.0
1.296387 0.010859 0.0
1.296778 0.009152 0.0
1.297681 0.009364 0.0
1.297560 0.012049 0.0
1.294621 0.017343 0.0
1.287138 0.024919 0.0
1.273752 0.034097 0.0
1.253644 0.044024 0.0
1.226597 0.053819 0.0
1.192960 0.062679 0.0
1.153577 0.069917 0.0
1.109699 0.074978 0.0
1.062898 0.077425 0.0
1.014998 0.076934 0.0
0.968021 0.073286 0.0
0.924148 0.066333 0.0
0.885591 0.055881 0.0
0.853975 0.041708 0.0
0.829096 0.024422 0.0
0.809253 0.006913 0.0
0.795437 -0.006856 0.0
0.789843 -0.015887 0.0
0.792030 -0.021094 0.0
0.800565 -0.023693 0.0
0.814123 -0.024564 0.0
0.831654 -0.024248 0.0
0.852279 -0.022997 0.0
0.875021 -0.020860 0.0
0.898507 -0.017776 0.0
0.920695 -0.013610 0.0
0.938969 -0.008141 0.0
0.951423 -0.001082 0.0
0.957578 0.007315 0.0
0.957389 0.016531 0.0
0.950915 0.025644 0.0
0.938608 0.033299 0.0
0.921081 0.038076 0.0
0.898743 0.039077 0.0
0.871772 0.036674 0.0
0.840600 0.032438 0.0
0.806567 0.028047 0.0
0.772117 0.024122 0.0
0.740354 0.020101 0.0
0.714276 0.015151 0.0
0.696047 0.009175 0.0
0.686460 0.003072 0.0
0.684617 -0.001792 0.0
0.688255 -0.004786 0.0
0.695192 -0.006407 0.0
0.704153 -0.007207 0.0
0.714204 -0.007203 0.0
0.724328 -0.006391 0.0
0.733486 -0.004838 0.0
0.740943 -0.002671 0.0
0.746640 -0.000251 0.0
0.750976 0.001894 0.0
0.754240 0.003423 0.0
0.756519 0.004095 0.0
0.757817 0.003829 0.0
0.757985 0.002876 0.0
0.756801 0.001817 0.0
0.754373 0.001182 0.0
0.751245 0.001001 0.0
0.747921 0.001030 0.0
0.744583 0.001135 0.0
0.741225 0.001283 0.0
0.737776 0.001460 0.0
0.734191 0.001609 0.0
0.730507 0.001596 0.0
0.726878 0.001262 0.0
0.723687 0.000468 0.0
0.721623 -0.000873 0.0
0.721228 -0.002501 0.0
0.722592 -0.003995 0.0
0.725589 -0.004978 0.0
0.728865 -0.004078 0.0
1.001965 -0.003587 0.0
1.009007 -0.012293 0.0
1.021843 -0.022479 0.0
1.039918 -0.033594 0.0
1.063066 -0.044988 0.0
1.091154 -0.055834 0.0
1.123799 -0.065044 0.0
1.160116 -0.071300 0.0
1.198526 -0.073283 0.0
1.236709 -0.070043 0.0
1.272084 -0.061874 0.0
1.302609 -0.050068 0.0
1.327129 -0.036238 0.0
1.345306 -0.021844 0.0
1.357394 -0.008057 0.0
1.364000 0.004208 0.0
1.365955 0.014350 0.0
1.364262 0.021951 0.0
1.360014 0.026766 0.0
1.354361 0.028731 0.0
1.348458 0.027983 0.0
1.343414 0.024883 0.0
1.340215 0.020038 0.0
1.339638 0.014327 0.0
1.342123 0.008921 0.0
1.347595 0.005225 0.0
1.355301 0.004683 0.0
1.363767 0.008386 0.0
1.371042 0.016671 0.0
1.375137 0.028978 0.0
1.374448 0.044114 0.0
1.367948 0.060615 0.0
1.355209 0.077015 0.0
1.336333 0.091997 0.0
1.311849 0.104465 0.0
1.282616 0.113541 0.0
1.249734 0.118545 0.0
1.214480 0.118969 0.0
1.178233 0.114474 0.0
1.142366 0.104883 0.0
1.108005 0.090248 0.0
1.075741 0.071221 0.0
1.045751 0.049777 0.0
1.018351 0.028800 0.0
0.993646 0.009779 0.0
0.972614 -0.005897 0.0
0.957167 -0.017824 0.0
0.948121 -0.026454 0.0
0.945421 -0.032661 0.0
0.948815 -0.037076 0.0
0.957958 -0.039936 0.0
0.972398 -0.041102 0.0
0.991534 -0.040156 0.0
1.014627 -0.036511 0.0
1.040740 -0.029627 0.0
1.068270 -0.019580 0.0
1.094798 -0.006870 0.0
1.118029 0.007674 0.0
1.136418 0.022586 0.0
1.148923 0.036160 0.0
1.154594 0.047071 0.0
1.152564 0.054450 0.0
1.142417 0.058419 0.0
1.124572 0.059711 0.0
1.100442 0.058938 0.0
1.072077 0.056046 0.0
1.041491 0.050526 0.0
1.010089 0.042206 0.0
0.978565 0.031872 0.0
0.947510 0.021017 0.0
0.918645 0.010970 0.0
0.895237 0.002221 0.0
0.880004 -0.005118 0.0
0.872929 -0.010382 0.0
0.872196 -0.013345 0.0
0.876141 -0.014318 0.0
0.883622 -0.013549 0.0
0.893612 -0.011406 0.0
0.904919 -0.008521 0.0
0.916244 -0.005497 0.0
0.926594 -0.002799 0.0
0.935453 -0.000821 0.0
0.942621 0.000279 0.0
0.948192 0.000687 0.0
0.952606 0.000775 0.0
0.956512 0.000745 0.0
0.960474 0.000603 0.0
0.964833 0.000393 0.0
0.969740 0.000203 0.0
0.975185 0.000128 0.0
0.981028 0.000222 0.0
0.987007 0.000451 0.0
0.992750 0.000695 0.0
0.997765 0.000778 0.0
1.001405 0.000504 0.0
1.002799 -0.000240 0.0
1.001326 -0.001266 0.0
0.997203 -0.002471 0.0
0.991665 -0.003961 0.0
0.988832 -0.005539 0.0
1.001591 -0.007143 0.0
1.007758 -0.021945 0.0
1.019769 -0.037674 0.0
1.037530 -0.054236 0.0
1.061199 -0.071164 0.0
1.090995 -0.087542 0.0
1.126898 -0.101884 0.0
1.168207 -0.112086 0.0
1.213128 -0.115827 0.0
1.258207 -0.110760 0.0
1.299287 -0.097613 0.0
1.333489 -0.079056 0.0
1.359642 -0.057924 0.0
1.377779 -0.036472 0.0
1.388589 -0.016328 0.0
1.393086 0.001375 0.0
1.392434 0.015880 0.0
1.387859 0.026690 0.0
1.380640 0.033493 0.0
1.372113 0.036184 0.0
1.363640 0.034905 0.0
1.356560 0.030084 0.0
1.352135 0.022462 0.0
1.351483 0.013133 0.0
1.355466 0.003648 0.0
1.364309 -0.003817 0.0
1.377144 -0.006816 0.0
1.391965 -0.003403 0.0
1.406092 0.007058 0.0
1.416944 0.023644 0.0
1.422677 0.044404 0.0
1.422371 0.067130 0.0
1.415875 0.089736 0.0
1.403561 0.110467 0.0
1.386094 0.127945 0.0
1.364264 0.141123 0.0
1.338888 0.149220 0.0
1.310763 0.151674 0.0
1.280634 0.148146 0.0
1.249138 0.138575 0.0
1.216738 0.123317 0.0
1.183729 0.103425 0.0
1.150481 0.080810 0.0
1.117806 0.057843 0.0
1.086923 0.036324 0.0
1.058744 0.016767 0.0
1.034122 -0.000419 0.0
1.014411 -0.015102 0.0
1.000583 -0.027485 0.0
0.992898 -0.037961 0.0
0.991317 -0.046614 0.0
0.995654 -0.053201 0.0
1.005739 -0.057278 0.0
1.021573 -0.058315 0.0
1.043390 -0.055752 0.0
1.071446 -0.049041 0.0
1.105422 -0.037913 0.0
1.143599 -0.022690 0.0
1.182495 -0.004335 0.0
1.217634 0.015437 0.0
1.245532 0.034225 0.0
1.264543 0.050314 0.0
1.273988 0.063257 0.0
1.273915 0.072791 0.0
1.265165 0.078737 0.0
1.249013 0.080763 0.0
1.226794 0.078613 0.0
1.199762 0.072553 0.0
1.169293 0.063518 0.0
1.137091 0.052629 0.0
1.104803 0.040510 0.0
1.073315 0.027576 0.0
1.043168 0.014907 0.0
1.016080 0.003756 0.0
0.994637 -0.005309 0.0
0.980133 -0.011796 0.0
0.972015 -0.015434 0.0
0.968973 -0.016469 0.0
0.969620 -0.015412 0.0
0.972569 -0.012881 0.0
0.976478 -0.009675 0.0
0.980232 -0.006559 0.0
0.983173 -0.004092 0.0
0.985234 -0.002575 0.0
0.986959 -0.002102 0.0
0.989326 -0.002651 0.0
0.993439 -0.004076 0.0
1.000270 -0.006118 0.0
1.010490 -0.008412 0.0
1.024324 -0.010537 0.0
1.041478 -0.012110 0.0
1.061143 -0.012861 0.0
1.082067 -0.012660 0.0
1.102700 -0.011516 0.0
1.121407 -0.009549 0.0
1.136810 -0.006984 0.0
1.148094 -0.004332 0.0
1.155179 -0.002368 0.0
1.158692 -0.002040 0.0
1.161299 -0.007233 0.0
1.001405 -0.010139 0.0
1.007007 -0.030717 0.0
1.018279 -0.052184 0.0
1.035567 -0.074775 0.0
1.059544 -0.098270 0.0
1.091095 -0.121782 0.0
1.130989 -0.143440 0.0
1.179167 -0.160017 0.0
1.234075 -0.167727 0.0
1.289942 -0.159806 0.0
1.339056 -0.138762 0.0
1.377434 -0.110487 0.0
1.404561 -0.079772 0.0
1.421473 -0.049672 0.0
1.429636 -0.022102 0.0
1.430592 0.001696 0.0
1.425803 0.021001 0.0
1.416670 0.035278 0.0
1.404666 0.044127 0.0
1.391371 0.047373 0.0
1.378423 0.045138 0.0
1.367463 0.037890 0.0
1.360081 0.026463 0.0
1.357810 0.012055 0.0
1.362057 -0.003505 0.0
1.373586 -0.017037 0.0
1.391720 -0.024564 0.0
1.413860 -0.022616 0.0
1.435807 -0.009803 0.0
1.453261 0.012198 0.0
1.463599 0.039779 0.0
1.466089 0.069570 0.0
1.461139 0.098741 0.0
1.449761 0.125153 0.0
1.433153 0.147334 0.0
1.412412 0.164305 0.0
1.388415 0.175411 0.0
1.361797 0.180225 0.0
1.332981 0.178541 0.0
1.302219 0.170437 0.0
1.269665 0.156409 0.0
1.235500 0.137508 0.0
1.200143 0.115332 0.0
1.164427 0.091711 0.0
1.129568 0.068198 0.0
1.096891 0.045750 0.0
1.067437 0.024675 0.0
1.041854 0.005098 0.0
1.020705 -0.012708 0.0
1.004215 -0.028563 0.0
0.992163 -0.042379 0.0
0.984413 -0.054025 0.0
0.981287 -0.063413 0.0
0.983748 -0.070475 0.0
0.993340 -0.075002 0.0
1.011777 -0.076283 0.0
1.040263 -0.073133 0.0
1.078919 -0.064304 0.0
1.126375 -0.049074 0.0
1.179248 -0.027836 0.0
1.231388 -0.002540 0.0
1.275575 0.023881 0.0
1.307938 0.047882 0.0
1.328291 0.067887 0.0
1.337433 0.083249 0.0
1.336409 0.093428 0.0
1.326394 0.098182 0.0
1.308671 0.097740 0.0
1.284690 0.092780 0.0
1.256079 0.084180 0.0
1.224489 0.072838 0.0
1.191498 0.059728 0.0
1.158600 0.045801 0.0
1.126904 0.031647 0.0
1.097021 0.018127 0.0
1.069819 0.006474 0.0
1.046647 -0.002414 0.0
1.028268 -0.008068 0.0
1.014184 -0.010377 0.0
1.003076 -0.009756 0.0
0.993466 -0.007099 0.0
0.984153 -0.003576 0.0
0.974562 -0.000424 0.0
0.964946 0.001311 0.0
0.956280 0.000954 0.0
0.949955 -0.001750 0.0
0.947493 -0.006628 0.0
0.950176 -0.013079 0.0
0.958735 -0.020229 0.0
0.973279 -0.027098 0.0
0.993375 -0.032799 0.0
1.018186 -0.036648 0.0
1.046596 -0.038207 0.0
1.077276 -0.037281 0.0
1.108718 -0.033934 0.0
1.139268 -0.028552 0.0
1.167178 -0.021957 0.0
1.190784 -0.015434 0.0
1.208872 -0.010575 0.0
1.221118 -0.013550 0.0
1.001219 -0.012764 0.0
1.006142 -0.038617 0.0
1.016274 -0.065688 0.0
1.032357 -0.094642 0.0
1.055693 -0.125716 0.0
1.088163 -0.158357 0.0
1.131997 -0.190594 0.0
1.188760 -0.217804 0.0
1.259027 -0.235115 0.0
1.331410 -0.220667 0.0
1.389788 -0.185394 0.0
1.430279 -0.142724 0.0
1.455382 -0.099764 0.0
1.468354 -0.059564 0.0
1.471720 -0.023739 0.0
1.467392 0.006706 0.0
1.456842 0.031330 0.0
1.441446 0.049479 0.0
1.422793 0.060582 0.0
1.402681 0.064325 0.0
1.383045 0.060771 0.0
1.365840 0.050421 0.0
1.352931 0.034223 0.0
1.346030 0.013468 0.0
1.347002 -0.010137 0.0
1.357677 -0.032611 0.0
1.378451 -0.047898 0.0
1.407155 -0.050127 0.0
1.438885 -0.035969 0.0
1.466683 -0.006889 0.0
1.484853 0.030358 0.0
1.491893 0.069461 0.0
1.489055 0.106639 0.0
1.478262 0.139426 0.0
1.461449 0.166483 0.0
1.440190 0.187157 0.0
1.415596 0.201149 0.0
1.388359 0.208341 0.0
1.358845 0.208756 0.0
1.327208 0.202621 0.0
1.293526 0.190462 0.0
1.257958 0.173188 0.0
1.220915 0.152052 0.0
1.183170 0.128451 0.0
1.145830 0.103657 0.0
1.110133 0.078664 0.0
1.077122 0.054226 0.0
1.047237 0.031014 0.0
1.020041 0.009720 0.0
0.994525 -0.008985 0.0
0.969820 -0.025199 0.0
0.946060 -0.039695 0.0
0.924994 -0.053551 0.0
0.909700 -0.067504 0.0
0.903738 -0.081603 0.0
0.910015 -0.094396 0.0
0.929907 -0.103397 0.0
0.963250 -0.106038 0.0
1.008780 -0.100326 0.0
1.064441 -0.085118 0.0
1.127366 -0.060323 0.0
1.192793 -0.027950 0.0
1.252515 0.007628 0.0
1.299085 0.041219 0.0
1.330801 0.069058 0.0
1.349032 0.090414 0.0
1.355243 0.105000 0.0
1.350931 0.112958 0.0
1.337669 0.114806 0.0
1.317112 0.111323 0.0
1.290949 0.103447 0.0
1.260843 0.092214 0.0
1.228379 0.078676 0.0
1.194984 0.063862 0.0
1.161911 0.048867 0.0
1.130130 0.034716 0.0
1.100115 0.022532 0.0
1.071901 0.013580 0.0
1.045252 0.008707 0.0
1.019674 0.007847 0.0
0.994607 0.009974 0.0
0.969939 0.013332 0.0
0.946313 0.015886 0.0
0.925032 0.015897 0.0
0.907727 0.012339 0.0
0.895925 0.004992 0.0
0.890710 -0.005692 0.0
0.892629 -0.018617 0.0
0.901617 -0.032239 0.0
0.917049 -0.045066 0.0
0.938025 -0.055903 0.0
0.963571 -0.063901 0.0
0.992719 -0.068513 0.0
1.024513 -0.069449 0.0
1.057965 -0.066660 0.0
1.091987 -0.060398 0.0
1.125299 -0.051335 0.0
1.156346 -0.040709 0.0
1.183277 -0.030319 0.0
1.202771 -0.025547 0.0
1.000947 -0.014930 0.0
1.004805 -0.045230 0.0
1.012921 -0.077323 0.0
1.026323 -0.112493 0.0
1.046916 -0.151795 0.0
1.077812 -0.195643 0.0
1.123566 -0.242896 0.0
1.189258 -0.287956 0.0
1.283099 -0.329071 0.0
1.378434 -0.294429 0.0
1.440615 -0.232192 0.0
1.473939 -0.169741 0.0
1.489489 -0.113401 0.0
1.493858 -0.063268 0.0
1.489999 -0.019542 0.0
1.478982 0.017854 0.0
1.461326 0.048388 0.0
1.438121 0.071022 0.0
1.410965 0.084848 0.0
1.381815 0.089320 0.0
1.352838 0.084390 0.0
1.326250 0.070594 0.0
1.304114 0.049095 0.0
1.288035 0.021577 0.0
1.279341 -0.010525 0.0
1.280750 -0.044306 0.0
1.295046 -0.071272 0.0
1.322542 -0.082952 0.0
1.360695 -0.073027 0.0
1.402769 -0.039703 0.0
1.437620 0.010152 0.0
1.457981 0.062266 0.0
1.464742 0.109912 0.0
1.461115 0.150572 0.0
1.449851 0.183413 0.0
1.432943 0.208395 0.0
1.411695 0.225753 0.0
1.386900 0.235769 0.0
1.359005 0.238738 0.0
1.328258 0.235023 0.0
1.294846 0.225152 0.0
1.259037 0.209875 0.0
1.221302 0.190143 0.0
1.182402 0.167005 0.0
1.143352 0.141493 0.0
1.105226 0.114652 0.0
1.068727 0.087749 0.0
1.033656 0.062449 0.0
0.998641 0.040495 0.0
0.961667 0.022730 0.0
0.921467 0.007993 0.0
0.879379 -0.007039 0.0
0.840378 -0.026140 0.0
0.811539 -0.050783 0.0
0.798140 -0.078963 0.0
0.801426 -0.106599 0.0
0.819890 -0.129551 0.0
0.851299 -0.144636 0.0
0.893720 -0.149680 0.0
0.945610 -0.143315 0.0
1.005471 -0.124912 0.0
1.071440 -0.094758 0.0
1.140717 -0.054566 0.0
1.207165 -0.009605 0.0
1.262071 0.033260 0.0
1.301372 0.068681 0.0
1.326090 0.095803 0.0
1.337830 0.114726 0.0
1.338238 0.125892 0.0
1.328999 0.130033 0.0
1.311809 0.128090 0.0
1.288336 0.121149 0.0
1.260167 0.110374 0.0
1.228747 0.096981 0.0
1.195301 0.082268 0.0
1.160739 0.067659 0.0
1.125590 0.054753 0.0
1.090046 0.045116 0.0
1.054115 0.039749 0.0
1.017902 0.038596 0.0
0.981946 0.040249 0.0
0.947410 0.042261 0.0
0.916017 0.041976 0.0
0.889722 0.037383 0.0
0.870241 0.027639 0.0
0.858652 0.013084 0.0
0.855202 -0.005119 0.0
0.859358 -0.025264 0.0
0.870120 -0.045341 0.0
0.886384 -0.063659 0.0
0.907114 -0.079016 0.0
0.931408 -0.090627 0.0
0.958490 -0.098017 0.0
0.987675 -0.100924 0.0
1.018303 -0.099264 0.0
1.049653 -0.093165 0.0
1.080833 -0.083060 0.0
1.110631 -0.069828 0.0
1.137378 -0.054878 0.0
1.157594 -0.040698 0.0
1.000544 -0.016421 0.0
1.002774 -0.049827 0.0
1.007612 -0.085680 0.0
1.016108 -0.126035 0.0
1.030433 -0.173171 0.0
1.054696 -0.229426 0.0
1.096294 -0.296466 0.0
1.166718 -0.370502 0.0
1.293759 -0.467407 0.0
1.411674 -0.369342 0.0
1.453151 -0.260937 0.0
1.457378 -0.178545 0.0
1.451071 -0.113840 0.0
1.442028 -0.058155 0.0
1.429944 -0.008713 0.0
1.412501 0.035485 0.0
1.388353 0.072562 0.0
1.357762 0.100644 0.0
1.321887 0.118257 0.0
1.282464 0.124484 0.0
1.241596 0.119071 0.0
1.201552 0.102544 0.0
1.164535 0.076296 0.0
1.132333 0.042658 0.0
1.105407 0.004013 0.0
1.085481 -0.040327 0.0
1.078613 -0.082680 0.0
1.091452 -0.111878 0.0
1.126615 -0.117417 0.0
1.181098 -0.091870 0.0
1.244537 -0.035971 0.0
1.298716 0.033849 0.0
1.333931 0.096355 0.0
1.353852 0.147835 0.0
1.362515 0.188751 0.0
1.362401 0.220079 0.0
1.355021 0.242697 0.0
1.341355 0.257286 0.0
1.322103 0.264368 0.0
1.297826 0.264416 0.0
1.269045 0.257952 0.0
1.236319 0.245610 0.0
1.200330 0.228131 0.0
1.161915 0.206332 0.0
1.121982 0.181149 0.0
1.081144 0.153960 0.0
1.039012 0.127071 0.0
0.993599 0.103610 0.0
0.942126 0.085821 0.0
0.883977 0.072527 0.0
0.823803 0.058571 0.0
0.770750 0.037524 0.0
0.733229 0.005819 0.0
0.714641 -0.035314 0.0
0.713488 -0.079880 0.0
0.725991 -0.121470 0.0
0.748681 -0.155833 0.0
0.779461 -0.180543 0.0
0.817386 -0.194121 0.0
0.862128 -0.195505 0.0
0.913476 -0.183931 0.0
0.970934 -0.159165 0.0
1.033407 -0.121908 0.0
1.098937 -0.074241 0.0
1.163207 -0.021280 0.0
1.218329 0.028799 0.0
1.259207 0.070089 0.0
1.286127 0.101779 0.0
1.300388 0.124170 0.0
1.303458 0.137925 0.0
1.296874 0.143971 0.0
1.282184 0.143432 0.0
1.260870 0.137573 0.0
1.234287 0.127785 0.0
1.203579 0.115617 0.0
1.169620 0.102830 0.0
1.133014 0.091338 0.0
1.094211 0.082880 0.0
1.053733 0.078394 0.0
1.012477 0.077421 0.0
0.971915 0.077941 0.0
0.934066 0.076953 0.0
0.901166 0.071576 0.0
0.875176 0.060068 0.0
0.857347 0.042265 0.0
0.848038 0.019356 0.0
0.846789 -0.006694 0.0
0.852542 -0.033599 0.0
0.864000 -0.059226 0.0
0.879941 -0.081979 0.0
0.899325 -0.100811 0.0
0.921303 -0.115104 0.0
0.945199 -0.124519 0.0
0.970473 -0.128882 0.0
0.996658 -0.128119 0.0
1.023264 -0.122266 0.0
1.049660 -0.111534 0.0
1.074924 -0.096415 0.0
1.097699 -0.077813 0.0
1.115363 -0.055643 0.0
1.000003 -0.016967 0.0
1.000019 -0.051527 0.0
1.000216 -0.089015 0.0
1.001216 -0.132197 0.0
1.004609 -0.184726 0.0
1.014157 -0.251681 0.0
1.038590 -0.340241 0.0
1.097248 -0.455809 0.0
1.254440 -0.666332 0.0
1.366474 -0.400367 0.0
1.329957 -0.234872 0.0
1.272765 -0.151645 0.0
1.233735 -0.095403 0.0
1.211965 -0.045779 0.0
1.197042 0.005918 0.0
1.178957 0.056381 0.0
1.153984 0.100787 0.0
1.121013 0.135981 0.0
1.080068 0.159740 0.0
1.031774 0.170720 0.0
0.976982 0.168495 0.0
0.916497 0.153649 0.0
0.851520 0.127185 0.0
0.785682 0.089809 0.0
0.727341 0.042129 0.0
0.685727 -0.016902 0.0
0.670783 -0.084293 0.0
0.689090 -0.141410 0.0
0.737784 -0.171742 0.0
0.810617 -0.164861 0.0
0.901589 -0.117391 0.0
1.000600 -0.037922 0.0
1.086792 0.046720 0.0
1.148924 0.115416 0.0
1.192423 0.169008 0.0
1.221674 0.210685 0.0
1.238895 0.242250 0.0
1.245510 0.264785 0.0
1.242642 0.278990 0.0
1.231299 0.285414 0.0
1.212443 0.284593 0.0
1.187014 0.277124 0.0
1.155933 0.263687 0.0
1.120007 0.245117 0.0
1.079600 0.222706 0.0
1.034034 0.198807 0.0
0.981348 0.177041 0.0
0.919712 0.160689 0.0
0.850706 0.149222 0.0
0.781619 0.136362 0.0
0.723225 0.113303 0.0
0.684072 0.074997 0.0
0.666541 0.023397 0.0
0.667071 -0.034834 0.0
0.679537 -0.091674 0.0
0.699082 -0.141724 0.0
0.723198 -0.182385 0.0
0.750942 -0.212516 0.0
0.782313 -0.231445 0.0
0.817855 -0.238465 0.0
0.858286 -0.232750 0.0
0.904106 -0.213625 0.0
0.955254 -0.181068 0.0
1.010885 -0.136243 0.0
1.069238 -0.081900 0.0
1.126752 -0.023217 0.0
1.176768 0.031211 0.0
1.214618 0.075887 0.0
1.240158 0.110260 0.0
1.254194 0.134729 0.0
1.257843 0.150102 0.0
1.252348 0.157486 0.0
1.238966 0.158214 0.0
1.218873 0.153821 0.0
1.193091 0.146072 0.0
1.162459 0.136966 0.0
1.127692 0.128575 0.0
1.089545 0.122592 0.0
1.049069 0.119635 0.0
1.007821 0.118686 0.0
0.967896 0.117163 0.0
0.931676 0.111799 0.0
0.901366 0.099940 0.0
0.878529 0.080532 0.0
0.863849 0.054309 0.0
0.857178 0.023292 0.0
0.857751 -0.009952 0.0
0.864418 -0.042761 0.0
0.875901 -0.073004 0.0
0.890992 -0.099233 0.0
0.908644 -0.120592 0.0
0.928005 -0.136660 0.0
0.948425 -0.147279 0.0
0.969444 -0.152416 0.0
0.990735 -0.152061 0.0
1.012003 -0.146200 0.0
1.032867 -0.134860 0.0
1.052711 -0.118196 0.0
1.070564 -0.096660 0.0
1.084660 -0.068556 0.0
0.999377 -0.016347 0.0
0.996807 -0.049594 0.0
0.991440 -0.085779 0.0
0.982953 -0.127947 0.0
0.971131 -0.180547 0.0
0.956568 -0.250845 0.0
0.943038 -0.351981 0.0
0.946218 -0.505908 0.0
1.051789 -0.878996 0.0
1.058965 -0.198204 0.0
0.879366 -0.101157 0.0
0.746600 -0.084351 0.0
0.685654 -0.062722 0.0
0.666226 -0.037264 0.0
0.667878 0.010675 0.0
0.670651 0.066936 0.0
0.665327 0.120529 0.0
0.647015 0.167523 0.0
0.611928 0.204229 0.0
0.558315 0.228137 0.0
0.486944 0.237238 0.0
0.402897 0.229438 0.0
0.318005 0.201267 0.0
0.249979 0.149590 0.0
0.215298 0.075370 0.0
0.221818 -0.015049 0.0
0.261945 -0.111330 0.0
0.320951 -0.191687 0.0
0.392223 -0.241432 0.0
0.475712 -0.251493 0.0
0.572476 -0.218494 0.0
0.682591 -0.145944 0.0
0.799969 -0.048829 0.0
0.904575 0.044226 0.0
0.984044 0.117229 0.0
1.043346 0.173911 0.0
1.086626 0.218523 0.0
1.115717 0.252804 0.0
1.131922 0.277634 0.0
1.136426 0.293608 0.0
1.130390 0.301292 0.0
1.114915 0.301329 0.0
1.090936 0.294541 0.0
1.058956 0.282167 0.0
1.018639 0.266381 0.0
0.968732 0.250606 0.0
0.908362 0.238298 0.0
0.839889 0.229542 0.0
0.770972 0.218293 0.0
0.712567 0.194783 0.0
0.673373 0.152470 0.0
0.655681 0.092676 0.0
0.656052 0.022878 0.0
0.668545 -0.047339 0.0
0.687675 -0.110765 0.0
0.709876 -0.164379 0.0
0.733262 -0.207233 0.0
0.757112 -0.239260 0.0
0.781589 -0.260549 0.0
0.807569 -0.270884 0.0
0.836371 -0.269565 0.0
0.869343 -0.255602 0.0
0.907382 -0.228278 0.0
0.950571 -0.187854 0.0
0.998033 -0.136103 0.0
1.047949 -0.076444 0.0
1.096899 -0.014529 0.0
1.139413 0.041262 0.0
1.171867 0.086892 0.0
1.193897 0.122030 0.0
1.205902 0.147147 0.0
1.208637 0.163202 0.0
1.203001 0.171515 0.0
1.189908 0.173705 0.0
1.170208 0.171670 0.0
1.144687 0.167521 0.0
1.114164 0.163311 0.0
1.079680 0.160487 0.0
1.042705 0.159190 0.0
1.005229 0.157855 0.0
0.969605 0.153545 0.0
0.938160 0.143082 0.0
0.912741 0.124386 0.0
0.894413 0.097251 0.0
0.883438 0.063244 0.0
0.879466 0.025000 0.0
0.881727 -0.014494 0.0
0.889162 -0.052321 0.0
0.900572 -0.086336 0.0
0.914776 -0.115196 0.0
0.930707 -0.138214 0.0
0.947488 -0.155179 0.0
0.964469 -0.166160 0.0
0.981239 -0.171325 0.0
0.997590 -0.170793 0.0
1.013424 -0.164569 0.0
1.028626 -0.152556 0.0
1.042920 -0.134638 0.0
1.055759 -0.110909 0.0
1.066048 -0.078693 0.0
0.998775 -0.014499 0.0
0.993714 -0.043811 0.0
0.982932 -0.075413 0.0
0.964955 -0.111850 0.0
0.937065 -0.156930 0.0
0.894275 -0.217108 0.0
0.826831 -0.304744 0.0
0.715797 -0.445291 0.0
0.323140 -0.761237 0.0
-0.484759 0.272099 0.0
-0.484759 0.000000 0.0
-0.030405 -0.020845 0.0
-0.041441 -0.063805 0.0
0.016955 -0.075149 0.0
0.105755 -0.041892 0.0
0.180413 0.042073 0.0
0.211912 0.119217 0.0
0.210911 0.188149 0.0
0.183616 0.245986 0.0
0.135244 0.288366 0.0
0.074462 0.309162 0.0
0.014137 0.301886 0.0
-0.031879 0.259727 0.0
-0.053268 0.180545 0.0
-0.045008 0.070837 0.0
-0.009354 -0.052689 0.0
0.044249 -0.167420 0.0
0.105987 -0.256339 0.0
0.172832 -0.314897 0.0
0.247631 -0.336317 0.0
0.333984 -0.316787 0.0
0.434060 -0.257842 0.0
0.547287 -0.167536 0.0
0.667435 -0.061820 0.0
0.776178 0.035063 0.0
0.861169 0.111785 0.0
0.925971 0.172568 0.0
0.974258 0.221381 0.0
1.007562 0.259548 0.0
1.027025 0.287727 0.0
1.033712 0.306522 0.0
1.028575 0.316711 0.0
1.012256 0.319458 0.0
0.984812 0.316675 0.0
0.945695 0.311308 0.0
0.894725 0.306556 0.0
0.834339 0.303103 0.0
0.771563 0.295986 0.0
0.716838 0.275490 0.0
0.679279 0.233550 0.0
0.662260 0.169916 0.0
0.663282 0.091901 0.0
0.677056 0.009508 0.0
0.698003 -0.067409 0.0
0.721808 -0.133630 0.0
0.745855 -0.187761 0.0
0.768566 -0.229949 0.0
0.789171 -0.261000 0.0
0.807697 -0.281812 0.0
0.824990 -0.292893 0.0
0.842635 -0.294002 0.0
0.862628 -0.284129 0.0
0.886821 -0.261982 0.0
0.916326 -0.226844 0.0
0.951157 -0.179407 0.0
0.990244 -0.122143 0.0
1.031626 -0.059162 0.0
1.071714 0.003294 0.0
1.106130 0.057991 0.0
1.132434 0.102597 0.0
1.150098 0.136912 0.0
1.159237 0.161564 0.0
1.160288 0.177738 0.0
1.153831 0.187033 0.0
1.140502 0.191372 0.0
1.121007 0.192835 0.0
1.096241 0.193286 0.0
1.067461 0.193777 0.0
1.036402 0.193933 0.0
1.005228 0.191762 0.0
0.976233 0.184256 0.0
0.951420 0.168629 0.0
0.932152 0.143526 0.0
0.919062 0.109530 0.0
0.912181 0.068820 0.0
0.911145 0.024433 0.0
0.915285 -0.020328 0.0
0.923648 -0.062285 0.0
0.935100 -0.099234 0.0
0.948487 -0.129889 0.0
0.962746 -0.153713 0.0
0.976996 -0.170711 0.0
0.990597 -0.181210 0.0
1.003186 -0.185635 0.0
1.014663 -0.184311 0.0
1.025117 -0.177340 0.0
1.034710 -0.164580 0.0
1.043521 -0.145720 0.0
1.051429 -0.120573 0.0
1.057881 -0.085770 0.0
0.998327 -0.011601 0.0
0.991430 -0.034751 0.0
0.976718 -0.058977 0.0
0.952031 -0.085622 0.0
0.913195 -0.116432 0.0
0.852158 -0.153779 0.0
0.752092 -0.200563 0.0
0.572794 -0.259140 0.0
0.228080 -0.313069 0.0
0.000000 0.272099 0.0
-0.000000 -0.000000 0.0
0.000000 0.000000 0.0
-0.040674 -0.041587 0.0
-0.083817 -0.111707 0.0
-0.085475 -0.092477 0.0
-0.074837 0.007361 0.0
-0.063233 0.110826 0.0
-0.068235 0.202543 0.0
-0.088356 0.279008 0.0
-0.118191 0.333550 0.0
-0.149976 0.356546 0.0
-0.174551 0.339401 0.0
-0.183230 0.276907 0.0
-0.169291 0.170814 0.0
-0.129923 0.032939 0.0
-0.075973 -0.104396 0.0
-0.020196 -0.225095 0.0
0.033911 -0.314509 0.0
0.086198 -0.375860 0.0
0.141149 -0.405104 0.0
0.205064 -0.398267 0.0
0.283056 -0.354430 0.0
0.376689 -0.277808 0.0
0.483089 -0.178096 0.0
0.594825 -0.069140 0.0
0.696228 0.029593 0.0
0.776787 0.109399 0.0
0.838755 0.174295 0.0
0.884812 0.227273 0.0
0.916074 0.269277 0.0
0.933331 0.301027 0.0
0.937147 0.323526 0.0
0.927738 0.338370 0.0
0.904998 0.347946 0.0
0.869185 0.354967 0.0
0.822559 0.360492 0.0
0.771119 0.360992 0.0
0.724237 0.347755 0.0
0.691090 0.311593 0.0
0.676333 0.249763 0.0
0.678973 0.168082 0.0
0.694783 0.076903 0.0
0.718736 -0.013219 0.0
0.746125 -0.093018 0.0
0.773593 -0.159295 0.0
0.799108 -0.211657 0.0
0.821304 -0.250959 0.0
0.839383 -0.278674 0.0
0.853171 -0.296451 0.0
0.863258 -0.305635 0.0
0.871114 -0.306760 0.0
0.878992 -0.299241 0.0
0.889481 -0.281554 0.0
0.904780 -0.252076 0.0
0.926006 -0.210232 0.0
0.952927 -0.157325 0.0
0.984154 -0.096590 0.0
1.017469 -0.032681 0.0
1.049291 0.027728 0.0
1.076219 0.079628 0.0
1.096675 0.121761 0.0
1.110055 0.154195 0.0
1.116284 0.177827 0.0
1.115567 0.194116 0.0
1.108305 0.204880 0.0
1.095109 0.212018 0.0
1.076912 0.217065 0.0
1.055091 0.220599 0.0
1.031481 0.221779 0.0
1.008189 0.218384 0.0
0.987226 0.207593 0.0
0.970137 0.187195 0.0
0.957807 0.156559 0.0
0.950529 0.116866 0.0
0.948219 0.070674 0.0
0.950565 0.021270 0.0
0.956965 -0.027706 0.0
0.966495 -0.072801 0.0
0.978065 -0.111740 0.0
0.990580 -0.143284 0.0
1.003039 -0.167036 0.0
1.014618 -0.183216 0.0
1.024734 -0.192422 0.0
1.033094 -0.195372 0.0
1.039704 -0.192661 0.0
1.044829 -0.184571 0.0
1.048887 -0.171001 0.0
1.052304 -0.151527 0.0
1.055366 -0.125736 0.0
1.058000 -0.089694 0.0
0.998119 -0.008047 0.0
0.990406 -0.023695 0.0
0.974095 -0.039011 0.0
0.947136 -0.053943 0.0
0.905827 -0.067967 0.0
0.844045 -0.079426 0.0
0.752370 -0.083175 0.0
0.619567 -0.064427 0.0
0.445354 0.016802 0.0
0.174611 0.156329 0.0
0.000000 0.000000 0.0
-0.000000 -0.000000 0.0
0.000000 0.000000 0.0
-0.052927 -0.054619 0.0
-0.117841 -0.081300 0.0
-0.141834 0.009541 0.0
-0.160280 0.115489 0.0
-0.171775 0.214376 0.0
-0.182054 0.297576 0.0
-0.191839 0.354601 0.0
-0.197516 0.372958 0.0
-0.192760 0.342807 0.0
-0.171018 0.260439 0.0
-0.124547 0.126871 0.0
-0.057760 -0.029273 0.0
0.008664 -0.162557 0.0
0.061122 -0.275169 0.0
0.101140 -0.358560 0.0
0.133347 -0.416303 0.0
0.161482 -0.447747 0.0
0.192559 -0.450615 0.0
0.235040 -0.422555 0.0
0.295074 -0.363351 0.0
0.373430 -0.277310 0.0
0.465261 -0.173493 0.0
0.561841 -0.064038 0.0
0.649391 0.034921 0.0
0.719493 0.116701 0.0
0.773416 0.184887 0.0
0.812514 0.241304 0.0
0.837291 0.286966 0.0
0.847921 0.323141 0.0
0.844446 0.351639 0.0
0.827300 0.374564 0.0
0.798442 0.393021 0.0
0.762722 0.404784 0.0
0.728031 0.402831 0.0
0.702967 0.377862 0.0
0.693074 0.324526 0.0
0.698946 0.245715 0.0
0.717656 0.150781 0.0
0.745305 0.050745 0.0
0.777352 -0.043060 0.0
0.809618 -0.122833 0.0
0.839579 -0.186909 0.0
0.865620 -0.235599 0.0
0.886676 -0.270269 0.0
0.902108 -0.292876 0.0
0.911704 -0.305634 0.0
0.915800 -0.310635 0.0
0.915501 -0.309317 0.0
0.912852 -0.301913 0.0
0.910694 -0.287213 0.0
0.912051 -0.263073 0.0
0.919242 -0.227651 0.0
0.933167 -0.180752 0.0
0.953202 -0.124425 0.0
0.977607 -0.062567 0.0
1.003756 -0.000357 0.0
1.028428 0.056113 0.0
1.049149 0.104099 0.0
1.064702 0.142924 0.0