# vtk DataFile Version 3.0
Vector Field
ASCII
DATASET RECTILINEAR_GRID
DIMENSIONS 100 26 1
X_COORDINATES 100 double
0.050000 0.150000 0.250000 0.350000 0.450000 0.550000 0.650000 0.750000 0.850000 0.950000 1.050000 1.150000 1.250000 1.350000 1.450000 1.550000 1.650000 1.750000 1.850000 1.950000 2.050000 2.150000 2.250000 2.350000 2.450000 2.550000 2.650000 2.750000 2.850000 2.950000 3.050000 3.150000 3.250000 3.350000 3.450000 3.550000 3.650000 3.750000 3.850000 3.950000 4.050000 4.150000 4.250000 4.350000 4.450000 4.550000 4.650000 4.750000 4.850000 4.950000 5.050000 5.150000 5.250000 5.350000 5.450000 5.550000 5.650000 5.750000 5.850000 5.950000 6.050000 6.150000 6.250000 6.350000 6.450000 6.550000 6.650000 6.750000 6.850000 6.950000 7.050000 7.150000 7.250000 7.350000 7.450000 7.550000 7.650000 7.750000 7.850000 7.950000 8.050000 8.150000 8.250000 8.350000 8.450000 8.550000 8.650000 8.750000 8.850000 8.950000 9.050000 9.150000 9.250000 9.350000 9.450000 9.550000 9.650000 9.750000 9.850000 9.950000 
Y_COORDINATES 26 double
0.050000 0.150000 0.250000 0.350000 0.450000 0.550000 0.650000 0.750000 0.850000 0.950000 1.050000 1.150000 1.250000 1.350000 1.450000 1.550000 1.650000 1.750000 1.850000 1.950000 2.050000 2.150000 2.250000 2.350000 2.450000 2.550000 
Z_COORDINATES 1 double
0.0
POINT_DATA 2600
VECTORS Vektorfeld double
0.997605 0.002395 0.0
0.992566 0.002645 0.0
0.988576 0.001345 0.0
0.987843 -0.000612 0.0
0.991313 -0.002858 0.0
0.999312 -0.005142 0.0
1.011685 -0.007231 0.0
1.027805 -0.008889 0.0
1.046599 -0.009905 0.0
1.066655 -0.010151 0.0
1.086447 -0.009641 0.0
1.104602 -0.008513 0.0
1.120070 -0.006956 0.0
1.132166 -0.005141 0.0
1.140491 -0.003184 0.0
1.144827 -0.001153 0.0
1.145158 0.000823 0.0
1.141411 0.002924 0.0
1.133208 0.005280 0.0
1.119988 0.007939 0.0
1.101170 0.010879 0.0
1.076277 0.014014 0.0
1.045060 0.017204 0.0
1.007579 0.020278 0.0
0.964241 0.023059 0.0
0.915800 0.025382 0.0
0.863313 0.027105 0.0
0.808099 0.028110 0.0
0.751691 0.028298 0.0
0.695800 0.027592 0.0
0.642262 0.025946 0.0
0.592941 0.023375 0.0
0.549573 0.019993 0.0
0.513556 0.016024 0.0
0.485770 0.011763 0.0
0.466576 0.007431 0.0
0.456177 0.002968 0.0
0.454512 -0.001303 0.0
0.459860 -0.004046 0.0
0.469374 -0.005467 0.0
0.480826 -0.005985 0.0
0.492772 -0.005962 0.0
0.504385 -0.005652 0.0
0.515250 -0.005213 0.0
0.525203 -0.004740 0.0
0.534224 -0.004281 0.0
0.542363 -0.003858 0.0
0.549700 -0.003479 0.0
0.556319 -0.003140 0.0
0.562292 -0.002834 0.0
0.567681 -0.002555 0.0
0.572534 -0.002297 0.0
0.576888 -0.002057 0.0
0.580777 -0.001832 0.0
0.584230 -0.001621 0.0
0.587276 -0.001425 0.0
0.589945 -0.001244 0.0
0.592268 -0.001079 0.0
0.594278 -0.000930 0.0
0.596006 -0.000798 0.0
0.597485 -0.000681 0.0
0.598745 -0.000579 0.0
0.599814 -0.000490 0.0
0.600718 -0.000414 0.0
0.601482 -0.000349 0.0
0.602125 -0.000294 0.0
0.602666 -0.000247 0.0
0.603120 -0.000208 0.0
0.603503 -0.000174 0.0
0.603824 -0.000147 0.0
0.604093 -0.000123 0.0
0.604320 -0.000104 0.0
0.604511 -0.000087 0.0
0.604672 -0.000074 0.0
0.604809 -0.000063 0.0
0.604925 -0.000053 0.0
0.605024 -0.000046 0.0
0.605110 -0.000040 0.0
0.605184 -0.000035 0.0
0.605251 -0.000032 0.0
0.605312 -0.000029 0.0
0.605369 -0.000028 0.0
0.605425 -0.000028 0.0
0.605481 -0.000029 0.0
0.605541 -0.000031 0.0
0.605608 -0.000035 0.0
0.605683 -0.000041 0.0
0.605773 -0.000049 0.0
0.605881 -0.000059 0.0
0.606013 -0.000073 0.0
0.606179 -0.000092 0.0
0.606388 -0.000117 0.0
0.606656 -0.000151 0.0
0.607002 -0.000196 0.0
0.607455 -0.000257 0.0
0.608057 -0.000344 0.0
0.608871 -0.000470 0.0
0.609998 -0.000657 0.0
0.611613 -0.000959 0.0
0.613785 -0.001213 0.0
1.002896 0.001894 0.0
1.011137 -0.000056 0.0
1.023739 -0.004567 0.0
1.040140 -0.010368 0.0
1.060337 -0.016770 0.0
1.084310 -0.023202 0.0
1.111818 -0.029051 0.0
1.142274 -0.033646 0.0
1.174693 -0.036361 0.0
1.207741 -0.036799 0.0
1.239978 -0.035022 0.0
1.270183 -0.031492 0.0
1.297552 -0.026814 0.0
1.321696 -0.021523 0.0
1.342523 -0.015952 0.0
1.360028 -0.010227 0.0
1.373938 -0.004344 0.0
1.383760 0.002015 0.0
1.388990 0.009163 0.0
1.388985 0.017281 0.0
1.383033 0.026307 0.0
1.370541 0.035971 0.0
1.351173 0.045832 0.0
1.324947 0.055356 0.0
1.292268 0.063996 0.0
1.253901 0.071254 0.0
1.210916 0.076705 0.0
1.164636 0.080005 0.0
1.116565 0.080882 0.0
1.068327 0.079137 0.0
1.021585 0.074682 0.0
0.977937 0.067608 0.0
0.938809 0.058256 0.0
0.905349 0.047237 0.0
0.878341 0.035345 0.0
0.858051 0.023333 0.0
0.843746 0.011769 0.0
0.833718 0.001589 0.0
0.827258 -0.005826 0.0
0.824461 -0.010403 0.0
0.824762 -0.012803 0.0
0.827422 -0.013751 0.0
0.831755 -0.013809 0.0
0.837211 -0.013376 0.0
0.843393 -0.012711 0.0
0.850032 -0.011970 0.0
0.856958 -0.011234 0.0
0.864055 -0.010538 0.0
0.871244 -0.009888 0.0
0.878459 -0.009274 0.0
0.885637 -0.008682 0.0
0.892713 -0.008100 0.0
0.899623 -0.007519 0.0
0.906303 -0.006939 0.0
0.912695 -0.006359 0.0
0.918750 -0.005788 0.0
0.924430 -0.005230 0.0
0.929708 -0.004695 0.0
0.934571 -0.004187 0.0
0.939015 -0.003714 0.0
0.943047 -0.003277 0.0
0.946683 -0.002879 0.0
0.949943 -0.002519 0.0
0.952852 -0.002198 0.0
0.955436 -0.001913 0.0
0.957724 -0.001661 0.0
0.959743 -0.001440 0.0
0.961522 -0.001247 0.0
0.963084 -0.001079 0.0
0.964454 -0.000933 0.0
0.965655 -0.000807 0.0
0.966706 -0.000698 0.0
0.967624 -0.000603 0.0
0.968427 -0.000522 0.0
0.969129 -0.000452 0.0
0.969741 -0.000392 0.0
0.970277 -0.000341 0.0
0.970745 -0.000298 0.0
0.971154 -0.000261 0.0
0.971513 -0.000231 0.0
0.971828 -0.000206 0.0
0.972105 -0.000186 0.0
0.972351 -0.000171 0.0
0.972569 -0.000161 0.0
0.972765 -0.000156 0.0
0.972944 -0.000155 0.0
0.973109 -0.000161 0.0
0.973264 -0.000173 0.0
0.973414 -0.000193 0.0
0.973564 -0.000222 0.0
0.973718 -0.000263 0.0
0.973883 -0.000320 0.0
0.974064 -0.000397 0.0
0.974271 -0.000502 0.0
0.974511 -0.000645 0.0
0.974798 -0.000845 0.0
0.975144 -0.001128 0.0
0.975560 -0.001541 0.0
0.976054 -0.002183 0.0
0.976671 -0.002777 0.0
1.001802 -0.002805 0.0
1.008199 -0.009995 0.0
1.019776 -0.018807 0.0
1.036041 -0.028794 0.0
1.056933 -0.039433 0.0
1.082468 -0.050047 0.0
1.112479 -0.059724 0.0
1.146378 -0.067328 0.0
1.182980 -0.071700 0.0
1.220456 -0.071984 0.0
1.256750 -0.068367 0.0
1.290261 -0.061864 0.0
1.320151 -0.053700 0.0
1.346240 -0.044871 0.0
1.368759 -0.035949 0.0
1.388067 -0.027043 0.0
1.404445 -0.017816 0.0
1.417884 -0.007774 0.0
1.427987 0.003618 0.0
1.434079 0.016738 0.0
1.435360 0.031521 0.0
1.431106 0.047504 0.0
1.420863 0.063911 0.0
1.404552 0.079813 0.0
1.382478 0.094292 0.0
1.355267 0.106537 0.0
1.323783 0.115889 0.0
1.289049 0.121836 0.0
1.252170 0.124001 0.0
1.214278 0.122148 0.0
1.176462 0.116228 0.0
1.139724 0.106448 0.0
1.104927 0.093340 0.0
1.072766 0.077773 0.0
1.043723 0.060860 0.0
1.018008 0.043822 0.0
0.995606 0.027987 0.0
0.976440 0.014565 0.0
0.960229 0.003869 0.0
0.946861 -0.003934 0.0
0.936493 -0.009204 0.0
0.928959 -0.012475 0.0
0.923886 -0.014345 0.0
0.920903 -0.015314 0.0
0.919698 -0.015750 0.0
0.920022 -0.015895 0.0
0.921674 -0.015886 0.0
0.924479 -0.015789 0.0
0.928272 -0.015619 0.0
0.932884 -0.015370 0.0
0.938144 -0.015024 0.0
0.943881 -0.014570 0.0
0.949925 -0.014003 0.0
0.956121 -0.013330 0.0
0.962328 -0.012567 0.0
0.968427 -0.011734 0.0
0.974322 -0.010857 0.0
0.979937 -0.009961 0.0
0.985221 -0.009068 0.0
0.990141 -0.008197 0.0
0.994679 -0.007364 0.0
0.998830 -0.006579 0.0
1.002603 -0.005851 0.0
1.006010 -0.005182 0.0
1.009072 -0.004575 0.0
1.011811 -0.004026 0.0
1.014252 -0.003536 0.0
1.016420 -0.003099 0.0
1.018342 -0.002712 0.0
1.020041 -0.002370 0.0
1.021539 -0.002069 0.0
1.022860 -0.001806 0.0
1.024021 -0.001575 0.0
1.025042 -0.001374 0.0
1.025938 -0.001198 0.0
1.026725 -0.001046 0.0
1.027414 -0.000913 0.0
1.028019 -0.000799 0.0
1.028550 -0.000700 0.0
1.029016 -0.000616 0.0
1.029424 -0.000544 0.0
1.029784 -0.000484 0.0
1.030100 -0.000435 0.0
1.030380 -0.000395 0.0
1.030628 -0.000366 0.0
1.030849 -0.000345 0.0
1.031048 -0.000335 0.0
1.031229 -0.000336 0.0
1.031396 -0.000348 0.0
1.031553 -0.000374 0.0
1.031703 -0.000416 0.0
1.031850 -0.000479 0.0
1.031999 -0.000567 0.0
1.032150 -0.000689 0.0
1.032308 -0.000856 0.0
1.032472 -0.001084 0.0
1.032634 -0.001397 0.0
1.032773 -0.001828 0.0
1.032821 -0.002438 0.0
1.032752 -0.003070 0.0
1.001414 -0.006021 0.0
1.006876 -0.018638 0.0
1.017498 -0.032362 0.0
1.033231 -0.047238 0.0
1.054312 -0.062963 0.0
1.081089 -0.078828 0.0
1.113737 -0.093602 0.0
1.151859 -0.105471 0.0
1.194105 -0.112404 0.0
1.237671 -0.112322 0.0
1.279127 -0.105779 0.0
1.316159 -0.094995 0.0
1.347977 -0.082276 0.0
1.374878 -0.069285 0.0
1.397696 -0.056871 0.0
1.417371 -0.045104 0.0
1.434622 -0.033384 0.0
1.449663 -0.020685 0.0
1.462025 -0.005936 0.0
1.470724 0.011501 0.0
1.474607 0.031594 0.0
1.472695 0.053597 0.0
1.464481 0.076275 0.0
1.450028 0.098213 0.0
1.429898 0.118095 0.0
1.404988 0.134855 0.0
1.376339 0.147705 0.0
1.344990 0.156104 0.0
1.311890 0.159711 0.0
1.277853 0.158369 0.0
1.243543 0.152134 0.0
1.209491 0.141333 0.0
1.176122 0.126620 0.0
1.143799 0.108978 0.0
1.112852 0.089645 0.0
1.083604 0.069999 0.0
1.056409 0.051409 0.0
1.031687 0.035030 0.0
1.009846 0.021458 0.0
0.991024 0.010667 0.0
0.975126 0.002461 0.0
0.962078 -0.003558 0.0
0.951795 -0.007907 0.0
0.944101 -0.011074 0.0
0.938787 -0.013470 0.0
0.935655 -0.015367 0.0
0.934506 -0.016917 0.0
0.935128 -0.018184 0.0
0.937285 -0.019173 0.0
0.940724 -0.019867 0.0
0.945183 -0.020246 0.0
0.950402 -0.020303 0.0
0.956135 -0.020047 0.0
0.962160 -0.019508 0.0
0.968290 -0.018726 0.0
0.974366 -0.017751 0.0
0.980268 -0.016637 0.0
0.985904 -0.015434 0.0
0.991213 -0.014188 0.0
0.996155 -0.012938 0.0
1.000712 -0.011716 0.0
1.004878 -0.010545 0.0
1.008662 -0.009441 0.0
1.012077 -0.008415 0.0
1.015144 -0.007471 0.0
1.017888 -0.006612 0.0
1.020333 -0.005836 0.0
1.022505 -0.005139 0.0
1.024430 -0.004518 0.0
1.026132 -0.003965 0.0
1.027635 -0.003476 0.0
1.028959 -0.003044 0.0
1.030125 -0.002664 0.0
1.031149 -0.002330 0.0
1.032050 -0.002038 0.0
1.032840 -0.001783 0.0
1.033534 -0.001560 0.0
1.034142 -0.001366 0.0
1.034676 -0.001198 0.0
1.035144 -0.001052 0.0
1.035555 -0.000927 0.0
1.035915 -0.000821 0.0
1.036232 -0.000731 0.0
1.036511 -0.000657 0.0
1.036758 -0.000598 0.0
1.036976 -0.000553 0.0
1.037171 -0.000521 0.0
1.037345 -0.000505 0.0
1.037502 -0.000503 0.0
1.037646 -0.000519 0.0
1.037779 -0.000554 0.0
1.037903 -0.000612 0.0
1.038020 -0.000699 0.0
1.038131 -0.000820 0.0
1.038233 -0.000986 0.0
1.038321 -0.001207 0.0
1.038384 -0.001499 0.0
1.038398 -0.001878 0.0
1.038318 -0.002356 0.0
1.038115 -0.002880 0.0
1.001213 -0.008648 0.0
1.006045 -0.026305 0.0
1.015783 -0.045055 0.0
1.030796 -0.065291 0.0
1.051800 -0.086995 0.0
1.079760 -0.109533 0.0
1.115590 -0.131375 0.0
1.159501 -0.149731 0.0
1.210370 -0.161260 0.0
1.263329 -0.159990 0.0
1.311746 -0.147984 0.0
1.352261 -0.130338 0.0
1.384707 -0.111198 0.0
1.410495 -0.093052 0.0
1.431553 -0.076980 0.0
1.449782 -0.062900 0.0
1.466672 -0.049729 0.0
1.482906 -0.035615 0.0
1.497988 -0.018450 0.0
1.510159 0.003145 0.0
1.517208 0.029017 0.0
1.517415 0.057880 0.0
1.509907 0.087715 0.0
1.494810 0.116324 0.0
1.473066 0.141858 0.0
1.446055 0.163013 0.0
1.415253 0.178997 0.0
1.382007 0.189406 0.0
1.347412 0.194103 0.0
1.312275 0.193151 0.0
1.277136 0.186800 0.0
1.242331 0.175524 0.0
1.208072 0.160056 0.0
1.174545 0.141392 0.0
1.141981 0.120742 0.0
1.110702 0.099428 0.0
1.081127 0.078751 0.0
1.053731 0.059805 0.0
1.028952 0.043303 0.0
1.007084 0.029513 0.0
0.988253 0.018343 0.0
0.972447 0.009414 0.0
0.959583 0.002267 0.0
0.949591 -0.003563 0.0
0.942381 -0.008457 0.0
0.937801 -0.012667 0.0
0.935644 -0.016312 0.0
0.935652 -0.019419 0.0
0.937521 -0.021965 0.0
0.940921 -0.023915 0.0
0.945510 -0.025247 0.0
0.950958 -0.025969 0.0
0.956961 -0.026118 0.0
0.963256 -0.025758 0.0
0.969624 -0.024972 0.0
0.975893 -0.023850 0.0
0.981934 -0.022481 0.0
0.987658 -0.020949 0.0
0.993006 -0.019329 0.0
0.997948 -0.017681 0.0
1.002471 -0.016054 0.0
1.006581 -0.014484 0.0
1.010292 -0.012996 0.0
1.013624 -0.011607 0.0
1.016604 -0.010326 0.0
1.019259 -0.009156 0.0
1.021617 -0.008096 0.0
1.023707 -0.007142 0.0
1.025554 -0.006288 0.0
1.027185 -0.005528 0.0
1.028622 -0.004853 0.0
1.029887 -0.004256 0.0
1.031000 -0.003730 0.0
1.031977 -0.003267 0.0
1.032835 -0.002860 0.0
1.033588 -0.002504 0.0
1.034248 -0.002192 0.0
1.034827 -0.001920 0.0
1.035334 -0.001684 0.0
1.035778 -0.001479 0.0
1.036168 -0.001301 0.0
1.036510 -0.001149 0.0
1.036809 -0.001020 0.0
1.037072 -0.000911 0.0
1.037303 -0.000822 0.0
1.037506 -0.000751 0.0
1.037685 -0.000697 0.0
1.037844 -0.000661 0.0
1.037984 -0.000644 0.0
1.038109 -0.000646 0.0
1.038219 -0.000670 0.0
1.038317 -0.000718 0.0
1.038403 -0.000795 0.0
1.038474 -0.000906 0.0
1.038529 -0.001057 0.0
1.038560 -0.001255 0.0
1.038555 -0.001509 0.0
1.038497 -0.001824 0.0
1.038361 -0.002194 0.0
1.038129 -0.002607 0.0
1.001013 -0.010874 0.0
1.005108 -0.033005 0.0
1.013578 -0.056562 0.0
1.027157 -0.082376 0.0
1.047139 -0.110897 0.0
1.075409 -0.141861 0.0
1.114232 -0.173701 0.0
1.165326 -0.202409 0.0
1.229449 -0.223575 0.0
1.296592 -0.217777 0.0
1.352347 -0.194369 0.0
1.393165 -0.165286 0.0
1.421529 -0.137060 0.0
1.441158 -0.112607 0.0
1.455586 -0.092912 0.0
1.467976 -0.077587 0.0
1.480959 -0.064914 0.0
1.496196 -0.051900 0.0
1.513684 -0.034736 0.0
1.531015 -0.010070 0.0
1.543879 0.022318 0.0
1.548608 0.059643 0.0
1.543592 0.098476 0.0
1.528958 0.135294 0.0
1.506105 0.167486 0.0
1.476981 0.193520 0.0
1.443558 0.212716 0.0
1.407538 0.224953 0.0
1.370248 0.230441 0.0
1.332624 0.229574 0.0
1.295262 0.222877 0.0
1.258504 0.211012 0.0
1.222535 0.194797 0.0
1.187493 0.175220 0.0
1.153555 0.153416 0.0
1.120981 0.130607 0.0
1.090116 0.108012 0.0
1.061349 0.086707 0.0
1.035045 0.067484 0.0
1.011494 0.050752 0.0
0.990892 0.036536 0.0
0.973367 0.024553 0.0
0.958992 0.014368 0.0
0.947786 0.005534 0.0
0.939710 -0.002269 0.0
0.934650 -0.009215 0.0
0.932386 -0.015342 0.0
0.932603 -0.020613 0.0
0.934922 -0.024960 0.0
0.938928 -0.028326 0.0
0.944198 -0.030695 0.0
0.950334 -0.032103 0.0
0.956979 -0.032631 0.0
0.963833 -0.032395 0.0
0.970660 -0.031531 0.0
0.977279 -0.030180 0.0
0.983567 -0.028480 0.0
0.989443 -0.026551 0.0
0.994865 -0.024498 0.0
0.999815 -0.022405 0.0
1.004298 -0.020337 0.0
1.008332 -0.018344 0.0
1.011941 -0.016456 0.0
1.015158 -0.014696 0.0
1.018015 -0.013074 0.0
1.020546 -0.011594 0.0
1.022783 -0.010253 0.0
1.024756 -0.009047 0.0
1.026495 -0.007969 0.0
1.028025 -0.007008 0.0
1.029371 -0.006155 0.0
1.030552 -0.005401 0.0
1.031589 -0.004735 0.0
1.032499 -0.004149 0.0
1.033297 -0.003634 0.0
1.033996 -0.003182 0.0
1.034609 -0.002787 0.0
1.035145 -0.002441 0.0
1.035615 -0.002140 0.0
1.036026 -0.001878 0.0
1.036386 -0.001651 0.0
1.036701 -0.001456 0.0
1.036976 -0.001288 0.0
1.037217 -0.001146 0.0
1.037427 -0.001028 0.0
1.037610 -0.000931 0.0
1.037770 -0.000856 0.0
1.037909 -0.000800 0.0
1.038030 -0.000766 0.0
1.038133 -0.000753 0.0
1.038220 -0.000762 0.0
1.038291 -0.000796 0.0
1.038346 -0.000858 0.0
1.038383 -0.000951 0.0
1.038396 -0.001080 0.0
1.038381 -0.001248 0.0
1.038328 -0.001459 0.0
1.038223 -0.001712 0.0
1.038054 -0.002001 0.0
1.037808 -0.002322 0.0
1.000735 -0.012622 0.0
1.003735 -0.038353 0.0
1.010118 -0.066067 0.0
1.020872 -0.097203 0.0
1.037835 -0.133015 0.0
1.064016 -0.174193 0.0
1.103827 -0.220004 0.0
1.162246 -0.265618 0.0
1.246867 -0.309109 0.0
1.333549 -0.286067 0.0
1.390502 -0.238788 0.0
1.420950 -0.192132 0.0
1.434869 -0.152497 0.0
1.439279 -0.121207 0.0
1.438977 -0.098438 0.0
1.437993 -0.083467 0.0
1.440088 -0.074113 0.0
1.448446 -0.066296 0.0
1.464754 -0.054137 0.0
1.487638 -0.030882 0.0
1.510461 0.007443 0.0
1.525029 0.055221 0.0
1.527485 0.105458 0.0
1.518016 0.152415 0.0
1.498686 0.192547 0.0
1.472047 0.224221 0.0
1.440433 0.247053 0.0
1.405716 0.261352 0.0
1.369294 0.267754 0.0
1.332158 0.267021 0.0
1.294976 0.259973 0.0
1.258179 0.247471 0.0
1.222049 0.230437 0.0
1.186797 0.209873 0.0
1.152634 0.186864 0.0
1.119808 0.162560 0.0
1.088605 0.138126 0.0
1.059335 0.114629 0.0
1.032306 0.092894 0.0
1.007814 0.073386 0.0
0.986142 0.056175 0.0
0.967560 0.041020 0.0
0.952301 0.027534 0.0
0.940522 0.015353 0.0
0.932260 0.004251 0.0
0.927408 -0.005822 0.0
0.925713 -0.014776 0.0
0.926796 -0.022479 0.0
0.930186 -0.028803 0.0
0.935366 -0.033669 0.0
0.941820 -0.037077 0.0
0.949069 -0.039106 0.0
0.956700 -0.039904 0.0
0.964380 -0.039657 0.0
0.971861 -0.038574 0.0
0.978966 -0.036861 0.0
0.985585 -0.034706 0.0
0.991661 -0.032276 0.0
0.997173 -0.029706 0.0
1.002129 -0.027103 0.0
1.006554 -0.024548 0.0
1.010485 -0.022097 0.0
1.013962 -0.019790 0.0
1.017030 -0.017647 0.0
1.019731 -0.015681 0.0
1.022105 -0.013892 0.0
1.024189 -0.012276 0.0
1.026017 -0.010826 0.0
1.027621 -0.009532 0.0
1.029026 -0.008380 0.0
1.030257 -0.007359 0.0
1.031336 -0.006457 0.0
1.032280 -0.005661 0.0
1.033107 -0.004960 0.0
1.033831 -0.004344 0.0
1.034465 -0.003804 0.0
1.035019 -0.003331 0.0
1.035504 -0.002918 0.0
1.035928 -0.002557 0.0
1.036298 -0.002243 0.0
1.036621 -0.001970 0.0
1.036904 -0.001734 0.0
1.037150 -0.001531 0.0
1.037364 -0.001358 0.0
1.037549 -0.001212 0.0
1.037710 -0.001091 0.0
1.037848 -0.000994 0.0
1.037965 -0.000919 0.0
1.038064 -0.000866 0.0
1.038144 -0.000836 0.0
1.038208 -0.000829 0.0
1.038253 -0.000846 0.0
1.038280 -0.000889 0.0
1.038284 -0.000961 0.0
1.038264 -0.001063 0.0
1.038213 -0.001198 0.0
1.038123 -0.001365 0.0
1.037986 -0.001564 0.0
1.037793 -0.001787 0.0
1.037537 -0.002034 0.0
1.000337 -0.013693 0.0
1.001733 -0.041679 0.0
1.004875 -0.072266 0.0
1.010751 -0.107633 0.0
1.021408 -0.150206 0.0
1.040745 -0.202521 0.0
1.075794 -0.266537 0.0
1.137519 -0.339228 0.0
1.251572 -0.434173 0.0
1.357456 -0.353569 0.0
1.392204 -0.262988 0.0
1.390088 -0.196263 0.0
1.374539 -0.146736 0.0
1.353353 -0.110192 0.0
1.329780 -0.085579 0.0
1.306857 -0.072418 0.0
1.288553 -0.068953 0.0
1.279675 -0.070937 0.0
1.285096 -0.071226 0.0
1.307763 -0.059344 0.0
1.344110 -0.023266 0.0
1.378938 0.036535 0.0
1.399783 0.100843 0.0
1.406423 0.159858 0.0
1.401781 0.209076 0.0
1.388888 0.247224 0.0
1.370027 0.274525 0.0
1.346805 0.291819 0.0
1.320383 0.300131 0.0
1.291651 0.300512 0.0
1.261323 0.293992 0.0
1.229987 0.281583 0.0
1.198141 0.264302 0.0
1.166215 0.243187 0.0
1.134601 0.219326 0.0
1.103666 0.193858 0.0
1.073765 0.167933 0.0
1.045248 0.142610 0.0
1.018488 0.118703 0.0
0.993901 0.096656 0.0
0.971955 0.076523 0.0
0.953128 0.058080 0.0
0.937845 0.041016 0.0
0.926394 0.025102 0.0
0.918868 0.010289 0.0
0.915150 -0.003290 0.0
0.914932 -0.015395 0.0
0.917754 -0.025764 0.0
0.923031 -0.034185 0.0
0.930120 -0.040556 0.0
0.938386 -0.044909 0.0
0.947260 -0.047397 0.0
0.956274 -0.048258 0.0
0.965071 -0.047781 0.0
0.973404 -0.046264 0.0
0.981119 -0.043991 0.0
0.988138 -0.041214 0.0
0.994437 -0.038144 0.0
1.000035 -0.034948 0.0
1.004972 -0.031754 0.0
1.009304 -0.028653 0.0
1.013090 -0.025709 0.0
1.016392 -0.022958 0.0
1.019268 -0.020423 0.0
1.021772 -0.018109 0.0
1.023952 -0.016016 0.0
1.025849 -0.014134 0.0
1.027502 -0.012450 0.0
1.028943 -0.010952 0.0
1.030199 -0.009622 0.0
1.031295 -0.008445 0.0
1.032252 -0.007406 0.0
1.033087 -0.006491 0.0
1.033817 -0.005686 0.0
1.034454 -0.004979 0.0
1.035011 -0.004360 0.0
1.035497 -0.003817 0.0
1.035922 -0.003342 0.0
1.036292 -0.002927 0.0
1.036615 -0.002566 0.0
1.036897 -0.002252 0.0
1.037141 -0.001979 0.0
1.037354 -0.001744 0.0
1.037537 -0.001542 0.0
1.037695 -0.001371 0.0
1.037830 -0.001227 0.0
1.037944 -0.001109 0.0
1.038038 -0.001015 0.0
1.038114 -0.000944 0.0
1.038172 -0.000897 0.0
1.038212 -0.000872 0.0
1.038232 -0.000870 0.0
1.038233 -0.000892 0.0
1.038210 -0.000940 0.0
1.038161 -0.001014 0.0
1.038081 -0.001115 0.0
1.037963 -0.001241 0.0
1.037803 -0.001391 0.0
1.037593 -0.001558 0.0
1.037330 -0.001743 0.0
0.999820 -0.013850 0.0
0.999098 -0.042197 0.0
0.997790 -0.073582 0.0
0.996446 -0.110848 0.0
0.996510 -0.157712 0.0
1.001469 -0.219310 0.0
1.019533 -0.302861 0.0
1.069055 -0.414151 0.0
1.210648 -0.614896 0.0
1.310753 -0.378835 0.0
1.270602 -0.232319 0.0
1.206534 -0.160749 0.0
1.151461 -0.111629 0.0
1.101819 -0.074473 0.0
1.053423 -0.049328 0.0
1.005228 -0.037551 0.0
0.959785 -0.040072 0.0
0.924510 -0.055665 0.0
0.910742 -0.078151 0.0
0.927957 -0.092301 0.0
0.977270 -0.075971 0.0
1.045902 -0.014220 0.0
1.107623 0.069032 0.0
1.149904 0.142747 0.0
1.178267 0.202467 0.0
1.196461 0.248533 0.0
1.206336 0.282202 0.0
1.208907 0.304793 0.0
1.204971 0.317515 0.0
1.195345 0.321487 0.0
1.180905 0.317786 0.0
1.162550 0.307481 0.0
1.141147 0.291653 0.0
1.117503 0.271405 0.0
1.092344 0.247881 0.0
1.066314 0.222267 0.0
1.040001 0.195738 0.0
1.013984 0.169338 0.0
0.988896 0.143823 0.0
0.965460 0.119559 0.0
0.944464 0.096563 0.0
0.926676 0.074656 0.0
0.912725 0.053674 0.0
0.903005 0.033615 0.0
0.897628 0.014678 0.0
0.896441 -0.002774 0.0
0.899068 -0.018321 0.0
0.904923 -0.031515 0.0
0.913247 -0.042036 0.0
0.923224 -0.049770 0.0
0.934082 -0.054819 0.0
0.945171 -0.057450 0.0
0.955989 -0.058036 0.0
0.966184 -0.056996 0.0
0.975541 -0.054740 0.0
0.983954 -0.051643 0.0
0.991399 -0.048026 0.0
0.997910 -0.044143 0.0
1.003554 -0.040191 0.0
1.008419 -0.036313 0.0
1.012597 -0.032604 0.0
1.016179 -0.029126 0.0
1.019248 -0.025912 0.0
1.021879 -0.022976 0.0
1.024138 -0.020319 0.0
1.026080 -0.017929 0.0
1.027754 -0.015792 0.0
1.029199 -0.013890 0.0
1.030450 -0.012203 0.0
1.031533 -0.010710 0.0
1.032473 -0.009393 0.0
1.033290 -0.008232 0.0
1.034000 -0.007211 0.0
1.034619 -0.006314 0.0
1.035158 -0.005527 0.0
1.035627 -0.004838 0.0
1.036037 -0.004234 0.0
1.036393 -0.003706 0.0
1.036704 -0.003244 0.0
1.036974 -0.002842 0.0
1.037208 -0.002491 0.0
1.037411 -0.002187 0.0
1.037586 -0.001924 0.0
1.037737 -0.001697 0.0
1.037864 -0.001502 0.0
1.037972 -0.001338 0.0
1.038060 -0.001200 0.0
1.038130 -0.001088 0.0
1.038182 -0.001000 0.0
1.038217 -0.000934 0.0
1.038234 -0.000891 0.0
1.038232 -0.000869 0.0
1.038209 -0.000870 0.0
1.038163 -0.000893 0.0
1.038090 -0.000939 0.0
1.037986 -0.001006 0.0
1.037847 -0.001093 0.0
1.037668 -0.001199 0.0
1.037446 -0.001318 0.0
1.037177 -0.001450 0.0
0.999238 -0.012907 0.0
0.996107 -0.039287 0.0
0.989597 -0.068675 0.0
0.979325 -0.104140 0.0
0.964954 -0.150113 0.0
0.946844 -0.213756 0.0
0.928322 -0.307957 0.0
0.924159 -0.454413 0.0
1.017386 -0.809455 0.0
1.020810 -0.186561 0.0
0.846498 -0.098941 0.0
0.712400 -0.086016 0.0
0.638199 -0.057086 0.0
0.574155 -0.015330 0.0
0.500837 0.013244 0.0
0.433335 0.015573 0.0
0.390003 -0.004421 0.0
0.378363 -0.044401 0.0
0.398180 -0.095464 0.0
0.445671 -0.139693 0.0
0.518024 -0.150245 0.0
0.612573 -0.103127 0.0
0.715651 -0.006860 0.0
0.803795 0.088213 0.0
0.872117 0.160315 0.0
0.928484 0.216125 0.0
0.974373 0.258847 0.0
1.009851 0.290099 0.0
1.035119 0.310877 0.0
1.050819 0.322052 0.0
1.057931 0.324548 0.0
1.057619 0.319387 0.0
1.051086 0.307683 0.0
1.039488 0.290617 0.0
1.023890 0.269427 0.0
1.005269 0.245373 0.0
0.984561 0.219654 0.0
0.962742 0.193259 0.0
0.940890 0.166841 0.0
0.920187 0.140680 0.0
0.901826 0.114799 0.0
0.886867 0.089167 0.0
0.876097 0.063883 0.0
0.869967 0.039257 0.0
0.868599 0.015782 0.0
0.871826 -0.005919 0.0
0.879137 -0.025114 0.0
0.889655 -0.041094 0.0
0.902325 -0.053452 0.0
0.916131 -0.062136 0.0
0.930209 -0.067389 0.0
0.943893 -0.069654 0.0
0.956719 -0.069476 0.0
0.968396 -0.067428 0.0
0.978781 -0.064049 0.0
0.987846 -0.059811 0.0
0.995641 -0.055098 0.0
1.002270 -0.050210 0.0
1.007862 -0.045361 0.0
1.012557 -0.040702 0.0
1.016489 -0.036324 0.0
1.019781 -0.032279 0.0
1.022541 -0.028588 0.0
1.024862 -0.025252 0.0
1.026820 -0.022259 0.0
1.028478 -0.019589 0.0
1.029888 -0.017216 0.0
1.031092 -0.015115 0.0
1.032123 -0.013259 0.0
1.033009 -0.011623 0.0
1.033773 -0.010184 0.0
1.034434 -0.008918 0.0
1.035005 -0.007807 0.0
1.035501 -0.006833 0.0
1.035931 -0.005978 0.0
1.036304 -0.005230 0.0
1.036629 -0.004575 0.0
1.036911 -0.004003 0.0
1.037156 -0.003503 0.0
1.037368 -0.003066 0.0
1.037551 -0.002685 0.0
1.037709 -0.002354 0.0
1.037844 -0.002067 0.0
1.037959 -0.001818 0.0
1.038054 -0.001604 0.0
1.038132 -0.001421 0.0
1.038193 -0.001266 0.0
1.038239 -0.001137 0.0
1.038268 -0.001032 0.0
1.038281 -0.000949 0.0
1.038276 -0.000888 0.0
1.038253 -0.000847 0.0
1.038209 -0.000826 0.0
1.038142 -0.000824 0.0
1.038049 -0.000842 0.0
1.037926 -0.000877 0.0
1.037770 -0.000928 0.0
1.037578 -0.000993 0.0
1.037346 -0.001069 0.0
1.037071 -0.001155 0.0
0.998697 -0.010842 0.0
0.993322 -0.032847 0.0
0.981900 -0.057183 0.0
0.962933 -0.086394 0.0
0.933650 -0.124206 0.0
0.888956 -0.176858 0.0
0.818879 -0.256258 0.0
0.704144 -0.387214 0.0
0.316229 -0.683211 0.0
-0.466924 0.234174 0.0
-0.466924 0.000000 0.0
-0.029751 -0.020457 0.0
-0.058953 -0.028536 0.0
-0.042823 0.004033 0.0
-0.001262 0.025638 0.0
0.040015 0.029404 0.0
0.059000 0.006094 0.0
0.061369 -0.045646 0.0
0.062713 -0.115380 0.0
0.079928 -0.184482 0.0
0.125533 -0.223415 0.0
0.204650 -0.203622 0.0
0.315215 -0.120008 0.0
0.439567 -0.011135 0.0
0.550692 0.080216 0.0
0.642626 0.147923 0.0
0.721667 0.202120 0.0
0.787848 0.245166 0.0
0.840923 0.277467 0.0
0.881333 0.299351 0.0
0.910054 0.311415 0.0
0.928341 0.314545 0.0
0.937547 0.309852 0.0
0.939010 0.298582 0.0
0.934026 0.282043 0.0
0.923877 0.261527 0.0
0.909906 0.238179 0.0
0.893586 0.212873 0.0
0.876525 0.186140 0.0
0.860376 0.158233 0.0
0.846679 0.129303 0.0
0.836708 0.099593 0.0
0.831383 0.069551 0.0
0.831258 0.039843 0.0
0.836528 0.011294 0.0
0.846826 -0.014957 0.0
0.861034 -0.037595 0.0
0.877670 -0.055766 0.0
0.895396 -0.069176 0.0
0.913168 -0.077990 0.0
0.930239 -0.082683 0.0
0.946105 -0.083910 0.0
0.960458 -0.082398 0.0
0.973145 -0.078869 0.0
0.984133 -0.073982 0.0
0.993483 -0.068294 0.0
1.001321 -0.062249 0.0
1.007813 -0.056180 0.0
1.013143 -0.050313 0.0
1.017494 -0.044795 0.0
1.021036 -0.039705 0.0
1.023921 -0.035075 0.0
1.026276 -0.030908 0.0
1.028208 -0.027185 0.0
1.029801 -0.023878 0.0
1.031124 -0.020951 0.0
1.032228 -0.018369 0.0
1.033156 -0.016095 0.0
1.033941 -0.014096 0.0
1.034608 -0.012340 0.0
1.035178 -0.010800 0.0
1.035666 -0.009450 0.0
1.036086 -0.008267 0.0
1.036448 -0.007230 0.0
1.036760 -0.006323 0.0
1.037030 -0.005529 0.0
1.037264 -0.004835 0.0
1.037466 -0.004228 0.0
1.037641 -0.003697 0.0
1.037791 -0.003234 0.0
1.037920 -0.002830 0.0
1.038030 -0.002477 0.0
1.038123 -0.002171 0.0
1.038199 -0.001905 0.0
1.038261 -0.001675 0.0
1.038309 -0.001476 0.0
1.038343 -0.001307 0.0
1.038364 -0.001163 0.0
1.038370 -0.001042 0.0
1.038362 -0.000943 0.0
1.038337 -0.000865 0.0
1.038294 -0.000804 0.0
1.038232 -0.000762 0.0
1.038147 -0.000736 0.0
1.038037 -0.000727 0.0
1.037899 -0.000731 0.0
1.037730 -0.000749 0.0
1.037527 -0.000777 0.0
1.037287 -0.000814 0.0
1.037008 -0.000857 0.0
0.998319 -0.007858 0.0
0.991388 -0.023524 0.0
0.976608 -0.040304 0.0
0.951841 -0.059539 0.0
0.912958 -0.082895 0.0
0.851968 -0.112484 0.0
0.752106 -0.150692 0.0
0.573913 -0.199851 0.0
0.229119 -0.235829 0.0
0.000000 0.234174 0.0
-0.000000 -0.000000 0.0
0.000000 0.000000 0.0
-0.015531 -0.014542 0.0
-0.037049 -0.005561 0.0
-0.046975 0.003599 0.0
-0.070027 0.033219 0.0
-0.115290 0.028557 0.0
-0.163930 -0.021837 0.0
-0.197610 -0.106853 0.0
-0.205533 -0.202301 0.0
-0.183688 -0.273046 0.0
-0.125758 -0.291037 0.0
-0.023593 -0.245325 0.0
0.111379 -0.145142 0.0
0.254023 -0.039546 0.0
0.382136 0.047637 0.0
0.488001 0.117500 0.0
0.576978 0.174629 0.0
0.651071 0.220836 0.0
0.710747 0.255896 0.0
0.756903 0.279994 0.0
0.790735 0.293847 0.0
0.813550 0.298530 0.0
0.826695 0.295295 0.0
0.831588 0.285421 0.0
0.829786 0.270100 0.0
0.823049 0.250315 0.0
0.813339 0.226768 0.0
0.802740 0.199906 0.0
0.793301 0.170055 0.0
0.786878 0.137602 0.0
0.785007 0.103137 0.0
0.788810 0.067530 0.0
0.798881 0.031920 0.0
0.814880 -0.002052 0.0
0.835069 -0.032097 0.0
0.857175 -0.056769 0.0
0.879517 -0.075571 0.0
0.901038 -0.088617 0.0
0.921120 -0.096404 0.0
0.939428 -0.099648 0.0
0.955796 -0.099179 0.0
0.970171 -0.095857 0.0
0.982579 -0.090505 0.0
0.993108 -0.083863 0.0
1.001894 -0.076550 0.0
1.009114 -0.069051 0.0
1.014964 -0.061720 0.0
1.019649 -0.054788 0.0
1.023368 -0.048391 0.0
1.026306 -0.042589 0.0
1.028621 -0.037391 0.0
1.030450 -0.032775 0.0
1.031899 -0.028699 0.0
1.033057 -0.025114 0.0
1.033988 -0.021969 0.0
1.034745 -0.019212 0.0
1.035365 -0.016800 0.0
1.035878 -0.014689 0.0
1.036305 -0.012842 0.0
1.036664 -0.011227 0.0
1.036967 -0.009814 0.0
1.037224 -0.008579 0.0
1.037444 -0.007499 0.0
1.037632 -0.006555 0.0
1.037793 -0.005729 0.0
1.037931 -0.005007 0.0
1.038049 -0.004376 0.0
1.038150 -0.003825 0.0
1.038236 -0.003343 0.0
1.038308 -0.002922 0.0
1.038368 -0.002555 0.0
1.038417 -0.002235 0.0
1.038455 -0.001956 0.0
1.038483 -0.001713 0.0
1.038500 -0.001503 0.0
1.038507 -0.001321 0.0
1.038503 -0.001165 0.0
1.038487 -0.001031 0.0
1.038458 -0.000917 0.0
1.038415 -0.000822 0.0
1.038355 -0.000744 0.0
1.038277 -0.000682 0.0
1.038177 -0.000633 0.0
1.038054 -0.000597 0.0
1.037904 -0.000573 0.0
1.037724 -0.000558 0.0
1.037513 -0.000552 0.0
1.037267 -0.000553 0.0
1.036984 -0.000557 0.0
0.998179 -0.004355 0.0
0.990699 -0.012615 0.0
0.974865 -0.020600 0.0
0.948684 -0.028294 0.0
0.908604 -0.035177 0.0
0.848821 -0.039430 0.0
0.760738 -0.035801 0.0
0.633498 -0.009310 0.0
0.474253 0.080947 0.0
0.194937 0.176182 0.0
0.000000 0.000000 0.0
-0.000000 -0.000000 0.0
0.000000 0.000000 0.0
-0.001812 0.000213 0.0
-0.036446 0.040361 0.0
-0.120301 0.103364 0.0
-0.213279 0.096653 0.0
-0.281564 0.026993 0.0
-0.317150 -0.086417 0.0
-0.321888 -0.210076 0.0
-0.303445 -0.305560 0.0
-0.265767 -0.354130 0.0
-0.203470 -0.346694 0.0
-0.102648 -0.279566 0.0
0.028273 -0.178686 0.0
0.165569 -0.078631 0.0
0.292560 0.010912 0.0
0.398213 0.086586 0.0
0.484938 0.148060 0.0
0.556505 0.197431 0.0
0.614065 0.234743 0.0
0.658729 0.260602 0.0
0.691646 0.276044 0.0
0.714061 0.282221 0.0
0.727447 0.280216 0.0
0.733606 0.270948 0.0
0.734697 0.255114 0.0
0.733165 0.233209 0.0
0.731600 0.205627 0.0
0.732531 0.172842 0.0
0.738172 0.135597 0.0
0.750139 0.095044 0.0
0.769154 0.052804 0.0
0.794515 0.011214 0.0
0.823284 -0.026114 0.0
0.852090 -0.057030 0.0
0.879154 -0.081007 0.0
0.903736 -0.098256 0.0
0.925618 -0.109334 0.0
0.944835 -0.114988 0.0
0.961535 -0.116073 0.0
0.975906 -0.113494 0.0
0.988146 -0.108157 0.0
0.998451 -0.100917 0.0
1.007010 -0.092539 0.0
1.014016 -0.083666 0.0
1.019660 -0.074799 0.0
1.024134 -0.066296 0.0