# vtk DataFile Version 3.0
Scalar Field
ASCII
DATASET RECTILINEAR_GRID
DIMENSIONS 100 26 1
X_COORDINATES 100 double
0.050000 0.150000 0.250000 0.350000 0.450000 0.550000 0.650000 0.750000 0.850000 0.950000 1.050000 1.150000 1.250000 1.350000 1.450000 1.550000 1.650000 1.750000 1.850000 1.950000 2.050000 2.150000 2.250000 2.350000 2.450000 2.550000 2.650000 2.750000 2.850000 2.950000 3.050000 3.150000 3.250000 3.350000 3.450000 3.550000 3.650000 3.750000 3.850000 3.950000 4.050000 4.150000 4.250000 4.350000 4.450000 4.550000 4.650000 4.750000 4.850000 4.950000 5.050000 5.150000 5.250000 5.350000 5.450000 5.550000 5.650000 5.750000 5.850000 5.950000 6.050000 6.150000 6.250000 6.350000 6.450000 6.550000 6.650000 6.750000 6.850000 6.950000 7.050000 7.150000 7.250000 7.350000 7.450000 7.550000 7.650000 7.750000 7.850000 7.950000 8.050000 8.150000 8.250000 8.350000 8.450000 8.550000 8.650000 8.750000 8.850000 8.950000 9.050000 9.150000 9.250000 9.350000 9.450000 9.550000 9.650000 9.750000 9.850000 9.950000 
Y_COORDINATES 26 double
0.050000 0.150000 0.250000 0.350000 0.450000 0.550000 0.650000 0.750000 0.850000 0.950000 1.050000 1.150000 1.250000 1.350000 1.450000 1.550000 1.650000 1.750000 1.850000 1.950000 2.050000 2.150000 2.250000 2.350000 2.450000 2.550000 
Z_COORDINATES 1 double
0.0
POINT_DATA 2600
SCALARS Skalarfeld double 1
LOOKUP_TABLE default
0.192131
0.188436
0.180773
0.168749
0.152141
0.130855
0.104990
0.074948
0.041533
0.005980
-0.030154
-0.065245
-0.097894
-0.127114
-0.152384
-0.173610
-0.191010
-0.204971
-0.215896
-0.224076
-0.229596
-0.232336
-0.231907
-0.227961
-0.220319
-0.209052
-0.194516
-0.177322
-0.158245
-0.138125
-0.117763
-0.097844
-0.078888
-0.061227
-0.045010
-0.030223
-0.016727
-0.004310
0.007250
0.018082
0.028404
0.038013
0.046357
0.052669
0.056104
0.055978
0.052046
0.044730
0.035163
0.024976
0.015852
0.009014
0.005474
0.005064
0.007215
0.011121
0.015917
0.020822
0.025233
0.028767
0.031268
0.032789
0.033550
0.033871
0.034084
0.034438
0.035010
0.035916
0.037055
0.038246
0.039404
0.040485
0.041435
0.042132
0.042340
0.041711
0.039837
0.036350
0.031071
0.024141
0.016086
0.007741
0.000004
-0.006441
-0.011365
-0.015165
-0.018542
-0.022379
-0.027518
-0.034497
-0.043373
-0.053717
-0.064855
-0.076218
-0.087592
-0.099091
-0.110707
-0.122627
-0.134451
-0.145853
0.195161
0.192332
0.184918
0.172877
0.156031
0.134238
0.107530
0.076280
0.041344
0.004123
-0.033549
-0.069808
-0.103133
-0.132545
-0.157612
-0.178371
-0.195184
-0.208582
-0.219093
-0.227090
-0.232676
-0.235650
-0.235590
-0.231957
-0.224470
-0.213148
-0.198355
-0.180740
-0.161141
-0.140455
-0.119530
-0.099084
-0.079657
-0.061590
-0.045032
-0.029965
-0.016239
-0.003627
0.008129
0.019271
0.029697
0.039160
0.047176
0.053026
0.055919
0.055221
0.050710
0.042792
0.032580
0.021739
0.012103
0.005197
0.001626
0.001374
0.003826
0.008114
0.013320
0.018628
0.023415
0.027290
0.030101
0.031912
0.032949
0.033532
0.033986
0.034554
0.035378
0.036300
0.037238
0.038152
0.039008
0.039790
0.040467
0.040929
0.040954
0.040201
0.038263
0.034777
0.029547
0.022675
0.014616
0.006153
-0.001756
-0.008248
-0.013218
-0.017044
-0.020379
-0.024103
-0.029055
-0.035765
-0.044278
-0.054178
-0.064843
-0.075778
-0.086814
-0.098109
-0.110150
-0.122891
-0.136119
-0.151861
0.203335
0.200735
0.193463
0.181357
0.164110
0.141397
0.113061
0.079353
0.041202
0.000367
-0.040631
-0.079347
-0.114029
-0.143749
-0.168297
-0.187997
-0.203520
-0.215701
-0.225339
-0.232996
-0.238822
-0.242512
-0.243398
-0.240563
-0.233511
-0.222159
-0.206881
-0.188421
-0.167741
-0.145859
-0.123718
-0.102102
-0.081591
-0.062546
-0.045125
-0.029311
-0.014957
-0.001832
0.010314
0.021687
0.032235
0.041597
0.049243
0.054432
0.056397
0.054551
0.048703
0.039271
0.027411
0.014933
0.003947
-0.003700
-0.007316
-0.007198
-0.004073
0.001074
0.007227
0.013505
0.019251
0.024062
0.027785
0.030473
0.032332
0.033634
0.034635
0.035512
0.036340
0.037091
0.037716
0.038229
0.038626
0.038933
0.039158
0.039229
0.038948
0.037988
0.035948
0.032456
0.027296
0.020513
0.012481
0.003884
-0.004403
-0.011572
-0.016856
-0.020845
-0.024131
-0.027529
-0.031830
-0.037570
-0.044883
-0.053535
-0.063129
-0.073367
-0.084202
-0.095831
-0.108574
-0.122673
-0.138192
-0.159783
0.216220
0.213728
0.206605
0.194493
0.176817
0.152891
0.122147
0.084518
0.040956
-0.006187
-0.052842
-0.095456
-0.132007
-0.161832
-0.185178
-0.202866
-0.216072
-0.226129
-0.234297
-0.241476
-0.247908
-0.253027
-0.255693
-0.254363
-0.248132
-0.236747
-0.220641
-0.200756
-0.178288
-0.154462
-0.130378
-0.106919
-0.084721
-0.064175
-0.045452
-0.028543
-0.013302
0.000500
0.013120
0.024784
0.035560
0.044907
0.052182
0.056574
0.057339
0.053962
0.046288
0.034725
0.020437
0.005378
-0.007977
-0.017225
-0.021003
-0.020300
-0.016100
-0.009582
-0.001925
0.005883
0.013126
0.019374
0.024459
0.028410
0.031388
0.033604
0.035258
0.036490
0.037372
0.037914
0.038097
0.037996
0.037831
0.037519
0.037128
0.036652
0.035953
0.034740
0.032628
0.029243
0.024338
0.017893
0.010179
0.001757
-0.006615
-0.014158
-0.020276
-0.024503
-0.027795
-0.030846
-0.034376
-0.038944
-0.044821
-0.052007
-0.060367
-0.069799
-0.080350
-0.092222
-0.105730
-0.121217
-0.139043
-0.165745
0.233609
0.231272
0.224493
0.212679
0.194847
0.169702
0.135888
0.092566
0.040457
-0.017339
-0.072969
-0.120960
-0.159397
-0.188453
-0.209248
-0.223364
-0.232682
-0.239257
-0.245085
-0.251675
-0.259476
-0.267467
-0.273392
-0.274777
-0.269978
-0.258513
-0.241016
-0.218833
-0.193584
-0.166833
-0.139906
-0.113820
-0.089277
-0.066695
-0.046250
-0.027931
-0.011586
0.003028
0.016186
0.028130
0.039120
0.048496
0.055398
0.058892
0.058334
0.053362
0.043897
0.030311
0.013663
-0.004150
-0.020511
-0.032599
-0.038033
-0.036787
-0.031391
-0.023201
-0.013634
-0.003862
0.005289
0.013332
0.020063
0.025481
0.029709
0.032921
0.035286
0.036931
0.037928
0.038297
0.038047
0.037235
0.036000
0.034859
0.033706
0.032564
0.031405
0.029985
0.027938
0.024879
0.020520
0.014766
0.007774
-0.000037
-0.008047
-0.015567
-0.022044
-0.026804
-0.030150
-0.032968
-0.035870
-0.039420
-0.044007
-0.049835
-0.056988
-0.065539
-0.075631
-0.087504
-0.101495
-0.118018
-0.137571
-0.167749
0.255212
0.253175
0.247164
0.236316
0.219119
0.193349
0.156215
0.105119
0.039639
-0.036871
-0.106180
-0.160310
-0.199280
-0.225441
-0.241335
-0.249484
-0.252579
-0.253602
-0.255652
-0.261366
-0.271768
-0.285252
-0.297381
-0.303525
-0.301144
-0.289485
-0.269718
-0.243988
-0.214629
-0.183710
-0.152859
-0.123245
-0.095627
-0.070431
-0.047823
-0.027774
-0.010115
0.005411
0.019086
0.031146
0.041693
0.050964
0.057333
0.059643
0.057547
0.051061
0.040337
0.025721
0.008013
-0.011252
-0.029718
-0.044554
-0.053316
-0.053024
-0.047199
-0.037765
-0.026495
-0.014812
-0.003716
0.006192
0.014633
0.021555
0.027044
0.031248
0.034319
0.036373
0.037467
0.037611
0.036813
0.035172
0.032926
0.030419
0.028318
0.026477
0.024937
0.023476
0.021725
0.019279
0.015804
0.011125
0.005279
-0.001462
-0.008624
-0.015622
-0.021897
-0.027037
-0.030581
-0.033311
-0.035810
-0.038625
-0.042215
-0.046922
-0.052994
-0.060646
-0.070115
-0.081691
-0.095740
-0.112702
-0.133111
-0.164919
0.280472
0.278966
0.274394
0.265657
0.250678
0.225997
0.186437
0.125556
0.038732
-0.073323
-0.161648
-0.219219
-0.254277
-0.273605
-0.281265
-0.280410
-0.274298
-0.266851
-0.262612
-0.266241
-0.280217
-0.302766
-0.326668
-0.341200
-0.342788
-0.330743
-0.307527
-0.276730
-0.241775
-0.205395
-0.169554
-0.135552
-0.104176
-0.075831
-0.050651
-0.028580
-0.009438
0.007017
0.021029
0.032758
0.042078
0.049268
0.054557
0.054904
0.050772
0.043042
0.032208
0.018402
0.001903
-0.016373
-0.034642
-0.050414
-0.061093
-0.064807
-0.059650
-0.050099
-0.038095
-0.025249
-0.012749
-0.001358
0.008522
0.016748
0.023343
0.028412
0.032078
0.034431
0.035495
0.035250
0.033712
0.031050
0.027646
0.024032
0.020782
0.018312
0.016564
0.015295
0.014113
0.012584
0.010325
0.007078
0.002762
-0.002495
-0.008370
-0.014405
-0.020109
-0.025093
-0.028945
-0.031598
-0.033878
-0.036233
-0.039126
-0.042973
-0.048128
-0.054906
-0.063621
-0.074611
-0.088259
-0.105004
-0.125349
-0.157083
0.308411
0.307727
0.305469
0.300470
0.290300
0.270303
0.231963
0.161138
0.038538
-0.147092
-0.253482
-0.300770
-0.322548
-0.330122
-0.326614
-0.314494
-0.296781
-0.277944
-0.263714
-0.262065
-0.278142
-0.311235
-0.352386
-0.383745
-0.391450
-0.378996
-0.351391
-0.314464
-0.273045
-0.230568
-0.189274
-0.150536
-0.115128
-0.083414
-0.055490
-0.031285
-0.010640
0.006601
0.020508
0.031087
0.038259
0.041560
0.041321
0.038841
0.033171
0.025845
0.017029
0.006360
-0.006447
-0.021135
-0.036611
-0.050970
-0.061937
-0.067679
-0.065643
-0.057323
-0.045969
-0.033197
-0.020320
-0.008258
0.002436
0.011488
0.018821
0.024464
0.028480
0.030904
0.031711
0.030852
0.028372
0.024552
0.019955
0.015303
0.011227
0.008299
0.006560
0.005734
0.005397
0.005074
0.004325
0.002810
0.000339
-0.003100
-0.007330
-0.012025
-0.016773
-0.021182
-0.024969
-0.027708
-0.029911
-0.032011
-0.034451
-0.037663
-0.042053
-0.047997
-0.055859
-0.066008
-0.078833
-0.094751
-0.114204
-0.144463
0.337526
0.337946
0.338897
0.339478
0.337560
0.328283
0.300416
0.227975
0.045004
-0.309763
-0.394320
-0.392531
-0.390302
-0.385015
-0.371129
-0.349225
-0.321222
-0.291773
-0.264777
-0.253871
-0.267554
-0.306441
-0.360934
-0.412747
-0.434010
-0.422225
-0.390967
-0.348887
-0.302206
-0.254863
-0.209228
-0.166682
-0.127980
-0.093482
-0.063293
-0.037375
-0.015673
0.001664
0.014105
0.021128
0.023065
0.020993
0.015891
0.010104
0.005141
0.000589
-0.004118
-0.009753
-0.017016
-0.026193
-0.036859
-0.047757
-0.057040
-0.062806
-0.063597
-0.057989
-0.048586
-0.037166
-0.025096
-0.013391
-0.002739
0.006449
0.013966
0.019735
0.023728
0.025899
0.026164
0.024453
0.020871
0.015841
0.010111
0.004563
-0.000078
-0.003227
-0.004721
-0.004847
-0.004070
-0.002918
-0.001902
-0.001446
-0.001843
-0.003227
-0.005558
-0.008634
-0.012133
-0.015699
-0.019027
-0.021844
-0.023939
-0.025884
-0.028021
-0.030752
-0.034486
-0.039623
-0.046549
-0.055644
-0.067291
-0.081870
-0.099755
-0.127465
0.365806
0.367492
0.372214
0.379732
0.389207
0.397915
0.397150
0.357674
0.144912
-0.621151
-0.560112
-0.448614
-0.430187
-0.421433
-0.403288
-0.376239
-0.346402
-0.315058
-0.285633
-0.269501
-0.276206
-0.308760
-0.360594
-0.414887
-0.450089
-0.444141
-0.411787
-0.368043
-0.319892
-0.271286
-0.224472
-0.180772
-0.140976
-0.105542
-0.074727
-0.048728
-0.027901
-0.013013
-0.005028
-0.004058
-0.008404
-0.015183
-0.021993
-0.026765
-0.028580
-0.028581
-0.027851
-0.027446
-0.028311
-0.031098
-0.035916
-0.042141
-0.048458
-0.053238
-0.055133
-0.052687
-0.045722
-0.036553
-0.026288
-0.015911
-0.006179
0.002383
0.009441
0.014796
0.018313
0.019853
0.019264
0.016475
0.011666
0.005409
-0.001381
-0.007690
-0.012711
-0.015895
-0.016916
-0.016087
-0.013929
-0.011049
-0.008047
-0.005438
-0.003611
-0.002806
-0.003094
-0.004382
-0.006436
-0.008938
-0.011564
-0.014057
-0.016112
-0.017934
-0.019827
-0.022146
-0.025274
-0.029600
-0.035508
-0.043373
-0.053554
-0.066391
-0.082189
-0.106562
0.390955
0.393833
0.402144
0.416477
0.437839
0.467594
0.506900
0.553390
0.644730
0.011790
-0.495698
-0.431283
-0.434389
-0.435521
-0.425704
-0.403233
-0.376837
-0.350850
-0.329193
-0.315750
-0.316624
-0.334428
-0.366964
-0.405339
-0.431566
-0.433929
-0.404766
-0.363456
-0.318530
-0.273317
-0.229616
-0.188585
-0.151058
-0.117679
-0.088995
-0.065613
-0.048434
-0.038682
-0.037083
-0.042423
-0.051269
-0.059752
-0.065452
-0.066391
-0.063278
-0.057581
-0.050717
-0.043960
-0.038392
-0.034839
-0.033743
-0.034970
-0.037714
-0.040666
-0.042431
-0.041887
-0.037975
-0.031575
-0.023753
-0.015414
-0.007318
-0.000059
0.005930
0.010338
0.012919
0.013437
0.011684
0.007592
0.001428
-0.006098
-0.013927
-0.020940
-0.026252
-0.029309
-0.029644
-0.027610
-0.023812
-0.018968
-0.013791
-0.008899
-0.004773
-0.001738
0.000051
0.000604
0.000087
-0.001224
-0.003005
-0.004972
-0.006816
-0.008408
-0.010022
-0.011918
-0.014423
-0.017894
-0.022694
-0.029171
-0.037657
-0.048442
-0.061766
-0.082231
0.410820
0.414541
0.425373
0.444420
0.473799
0.517221
0.581151
0.676373
0.805802
0.829875
0.000000
-0.431872
-0.432461
-0.432786
-0.430787
-0.426039
-0.418101
-0.408766
-0.401068
-0.392606
-0.385134
-0.382282
-0.385633
-0.393926
-0.396297
-0.389415
-0.368571
-0.333121
-0.295061
-0.257156
-0.220508
-0.185960
-0.154321
-0.126394
-0.103026
-0.085270
-0.074515
-0.072046
-0.077619
-0.088318
-0.099565
-0.107505
-0.109697
-0.105102
-0.095797
-0.083604
-0.070255
-0.057215
-0.045642
-0.036392
-0.030012
-0.026638
-0.025853
-0.026691
-0.027889
-0.028306
-0.026926
-0.023108
-0.017904
-0.011952
-0.005932
-0.000448
0.004004
0.007026
0.008271
0.007419
0.004210
-0.001405
-0.009073
-0.017956
-0.026872
-0.034596
-0.040160
-0.042965
-0.042428
-0.038966
-0.033303
-0.026299
-0.018805
-0.011558
-0.005130
0.000091
0.003893
0.006236
0.007243
0.007164
0.006328
0.005068
0.003669
0.002369
0.001120
-0.000275
-0.002085
-0.004619
-0.008201
-0.013148
-0.019748
-0.028242
-0.038804
-0.054947
0.423883
0.427926
0.439664
0.460178
0.491372
0.536053
0.597461
0.677498
0.770851
0.853949
0.758921
0.000000
-0.433179
-0.433897
-0.438609
-0.450516
-0.467281
-0.483917
-0.496823
-0.495640
-0.475246
-0.444359
-0.411549
-0.382092
-0.355198
-0.331843
-0.306794
-0.280273
-0.250448
-0.221890
-0.194793
-0.169497
-0.146646
-0.127098
-0.111961
-0.102724
-0.101076
-0.107773
-0.121007
-0.136296
-0.148594
-0.154542
-0.151135
-0.140095
-0.123873
-0.104826
-0.085012
-0.066064
-0.049173
-0.035141
-0.024457
-0.017310
-0.013493
-0.012315
-0.012685
-0.013403
-0.013437
-0.012158
-0.009465
-0.005920
-0.002112
0.001379
0.004033
0.005386
0.005014
0.002523
-0.002379
-0.009710
-0.019029
-0.029382
-0.039467
-0.047945
-0.053745
-0.056195
-0.054638
-0.049584
-0.041899
-0.032614
-0.022739
-0.013142
-0.004484
0.002795
0.008458
0.012450
0.014876
0.015981
0.016102
0.015602
0.014800
0.013978
0.013237
0.012468
0.011471
0.009991
0.007750
0.004474
-0.000076
-0.006088
-0.013672
-0.025183
0.429569
0.433411
0.444486
0.463545
0.491843
0.530849
0.581570
0.641614
0.696796
0.712394
0.663894
0.542917
0.000000
-0.443107
-0.452316
-0.482148
-0.523735
-0.569186
-0.603457
-0.603540
-0.564521
-0.503317
-0.434450
-0.368714
-0.312529
-0.268325
-0.235236
-0.208681
-0.187640
-0.168451
-0.151650
-0.136849
-0.124463
-0.115388
-0.111020
-0.113197
-0.123408
-0.141098
-0.162554
-0.182098
-0.194642
-0.197192
-0.187131
-0.168924
-0.145592
-0.119911
-0.094172
-0.070092
-0.048828
-0.031071
-0.017168
-0.007219
-0.001070
0.001791
0.002261
0.001459
0.000393
0.000012
0.000676
0.002090
0.003822
0.005354
0.006165
0.005752
0.003629
-0.000649
-0.007387
-0.016560
-0.027636
-0.039543
-0.050860
-0.060123
-0.066144
-0.068138
-0.065466
-0.058743
-0.048994
-0.037427
-0.025224
-0.013387
-0.002664
0.006467
0.013764
0.019186
0.022853
0.025023
0.026051
0.026330
0.026221
0.026024
0.025942
0.025945
0.025901
0.025611
0.024845
0.023379
0.021023
0.017648
0.013210
0.006565
0.428254
0.431559
0.440995
0.456909
0.479681
0.509311
0.544349
0.579475
0.601530
0.585783
0.513870
0.421940
0.250863
0.000000
-0.496316
-0.540316
-0.577061
-0.640833
-0.690632
-0.681423
-0.623076
-0.536996
-0.440501
-0.347032
-0.266320
-0.204301
-0.159123
-0.129214
-0.110504
-0.099618
-0.092367
-0.087876
-0.086566
-0.089478
-0.098235
-0.114580
-0.138955
-0.168826
-0.198658
-0.222062
-0.234392
-0.231255
-0.214219
-0.188999
-0.159167
-0.127807
-0.097310
-0.069352
-0.044967
-0.024679
-0.008656
0.003145
0.010923
0.015086
0.016351
0.015708
0.014201
0.012678
0.011754
0.011447
0.011429
0.011237
0.010356
0.008256
0.004407
-0.001668
-0.010264
-0.021296
-0.034135
-0.047597
-0.060135
-0.070157
-0.076355
-0.077794
-0.073981
-0.065629
-0.053915
-0.040221
-0.025892
-0.012057
0.000458
0.011148
0.019786
0.026364
0.031041
0.034107
0.035944
0.036976
0.037607
0.038156
0.038858
0.039774
0.040827
0.041866
0.042711
0.043185
0.043151
0.042539
0.041372
0.039762
0.420915
0.423438
0.430529
0.442133
0.457923
0.476831
0.496144
0.509953
0.507267
0.470624
0.382044
0.232620
0.079786
-0.355668
-0.595337
-0.534960
-0.588295
-0.672426
-0.725416
-0.698017
-0.624693
-0.524772
-0.415389
-0.309702
-0.217087
-0.143248
-0.089462
-0.053814
-0.032431
-0.022436
-0.023142
-0.027520
-0.037063
-0.052894
-0.076377
-0.108341
-0.147409
-0.188966
-0.226113
-0.252060
-0.262298
-0.252187
-0.229102
-0.198077
-0.163270
-0.127941
-0.094438
-0.064273
-0.038277
-0.016767
0.000277
0.013053
0.021835
0.026976
0.029019
0.028760
0.027159
0.025103
0.023094
0.021561
0.020235
0.018688
0.016410
0.012848
0.007441
-0.000298
-0.010634
-0.023410
-0.037891
-0.052780
-0.066415
-0.077082
-0.083363
-0.084160
-0.079256
-0.069438
-0.056016
-0.040518
-0.024428
-0.008982
0.004935
0.016806
0.026432
0.033853
0.039282
0.043049
0.045571
0.047299
0.048670
0.050041
0.051633
0.053587
0.055867
0.058364
0.060942
0.063469
0.065861
0.068105
0.070293
0.073824
0.408978
0.410624
0.415147
0.422206
0.431022
0.439983
0.445994
0.443557
0.423752
0.373334
0.274714
0.104157
-0.188912
-0.791121
-0.655715
-0.548323
-0.591326
-0.662042
-0.680678
-0.645579
-0.571469
-0.474666
-0.369505
-0.267019
-0.175059
-0.098750
-0.040406
0.001040
0.028650
0.043305
0.041837
0.032261
0.013356
-0.014769
-0.052305
-0.098437
-0.149798
-0.200173
-0.241932
-0.268353
-0.273902
-0.257686
-0.229782
-0.195005
-0.157542
-0.120555
-0.086184
-0.055694
-0.029675
-0.008242
0.008788
0.021739
0.030965
0.036803
0.039643
0.040045
0.038760
0.036575
0.034128
0.031917
0.029773
0.027308
0.024011
0.019311
0.012629
0.003481
-0.008348
-0.022612
-0.038474
-0.054529
-0.069011
-0.080108
-0.086325
-0.086421
-0.080543
-0.069535
-0.054798
-0.037971
-0.020636
-0.004102
0.010717
0.023312
0.033525
0.041455
0.047370
0.051645
0.054725
0.057084
0.059178
0.061387
0.063962
0.067053
0.070663
0.074722
0.079127
0.083791
0.088677
0.093832
0.099410
0.108114
0.394040
0.394844
0.396936
0.399827
0.402538
0.403313
0.399212
0.385581
0.355527
0.299441
0.204459
0.053656
-0.174962
-0.464296
-0.516118
-0.519266
-0.552761
-0.585492
-0.584324
-0.550293
-0.488069
-0.407721
-0.319541
-0.232063
-0.151542
-0.081919
-0.024820
0.020085
0.053061
0.072016
0.082409
0.073322
0.049433
0.013082
-0.034085
-0.089290
-0.147496
-0.201535
-0.243546
-0.267229
-0.264942
-0.245825
-0.215911
-0.180299
-0.143013
-0.106924
-0.073864
-0.044828
-0.020198
0.000057
0.016215
0.028672
0.037833
0.044051
0.047632
0.048930
0.048437
0.046748
0.044401
0.042045
0.039569
0.036631
0.032728
0.027271
0.019669
0.009463
-0.003504
-0.018891
-0.035756
-0.052599
-0.067574
-0.078807
-0.084764
-0.084138
-0.077453
-0.065596
-0.050028
-0.032454
-0.014507
0.002486
0.017619
0.030422
0.040795
0.048896
0.055048
0.059660
0.063194
0.066132
0.068937
0.072002
0.075603
0.079891
0.084897
0.090579
0.096866
0.103707
0.111112
0.119180
0.128128
0.141954
0.377640
0.377711
0.377721
0.377139
0.374970
0.369578
0.358446
0.337925
0.303050
0.247518
0.163982
0.045365
-0.109790
-0.280093
-0.373764
-0.423233
-0.459460
-0.479562
-0.476201
-0.450329
-0.404025
-0.343204
-0.274769
-0.204969
-0.138667
-0.079096
-0.027912
0.014378
0.047344
0.073211
0.087195
0.082407
0.059900
0.022344
-0.026873
-0.083373
-0.141069
-0.192377
-0.229489
-0.246084
-0.239255
-0.219076
-0.190091
-0.156667
-0.122269
-0.089329
-0.059349
-0.033108
-0.010859
0.007483
0.022212
0.033717
0.042410
0.048654
0.052740
0.054917
0.055468
0.054746
0.053254
0.051337
0.049028
0.046071
0.041986
0.036180
0.028063
0.017207
0.003526
-0.012542
-0.029958
-0.047144
-0.062200
-0.073226
-0.078682
-0.077349
-0.070044
-0.057699
-0.041818
-0.024128
-0.006256
0.010507
0.025319
0.037787
0.047888
0.055842
0.062013
0.066830
0.070752
0.074248
0.077770
0.081710
0.086356
0.091865
0.098290
0.105610
0.113782
0.122787
0.132675
0.143597
0.155827
0.174630
0.361112
0.360593
0.358947
0.355674
0.349879
0.340171
0.324552
0.300336
0.264177
0.212305
0.141162
0.048879
-0.061349
-0.176288
-0.262901
-0.321530
-0.360467
-0.380995
-0.382261
-0.365808
-0.333533
-0.289321
-0.237872
-0.183706
-0.130568
-0.081158
-0.037132
0.000689
0.031998
0.056358
0.068811
0.066280
0.048181
0.015768
-0.027979
-0.078284
-0.128710
-0.171805
-0.200500
-0.208269
-0.201148
-0.182949
-0.157608
-0.128690
-0.099021
-0.070597
-0.044665
-0.021879
-0.002461
0.013657
0.026721
0.037071
0.045079
0.051094
0.055407
0.058239
0.059773
0.060186
0.060020
0.059061
0.057420
0.054906
0.051075
0.045343
0.037135
0.026065
0.012125
-0.004157
-0.021653
-0.038724
-0.053442
-0.063918
-0.068662
-0.066618
-0.058843
-0.046333
-0.030625
-0.013435
0.003674
0.019513
0.033370
0.044975
0.054400
0.061930
0.067954
0.072894
0.077181
0.081248
0.085514
0.090351
0.096052
0.102777
0.110600
0.119522
0.129525
0.140618
0.152889
0.166533
0.181884
0.205417
0.345531
0.344564
0.341677
0.336441
0.328111
0.315580
0.297345
0.271528
0.235993
0.188648
0.128038
0.054366
-0.028904
-0.113649
-0.185910
-0.241072
-0.279659
-0.302102
-0.308471
-0.299977
-0.278496
-0.246884
-0.208518
-0.166751
-0.124504
-0.084048
-0.046971
-0.014303
0.013510
0.034146
0.045090
0.044230
0.030723
0.005285
-0.029631
-0.069757
-0.109311
-0.141818
-0.161436
-0.166344
-0.160322
-0.145619
-0.125086
-0.101450
-0.076955
-0.053254
-0.031427
-0.012080
0.004547
0.018471
0.029877
0.039047
0.046305
0.051972
0.056330
0.059597
0.061932
0.063498
0.064571
0.064779
0.064152
0.062469
0.059284
0.054022
0.046130
0.035269
0.021506
0.005454
-0.011684
-0.028222
-0.042228
-0.051845
-0.055623
-0.052853
-0.044719
-0.032311
-0.017200
-0.001062
0.014655
0.028937
0.041259
0.051527
0.059935
0.066829
0.072600
0.077634
0.082305
0.086984
0.092035
0.097791
0.104548
0.112457
0.121616
0.132052
0.143770
0.156811
0.171292
0.187454
0.205682
0.233591
0.331716
0.330422
0.326645
0.320046
0.310037
0.295776
0.276176
0.249972
0.215858
0.172763
0.120288
0.059321
-0.007251
-0.074205
-0.134430
-0.183605
-0.220073
-0.243302
-0.253287
-0.250613
-0.236925
-0.214431
-0.185688
-0.153282
-0.119551
-0.086425
-0.055390
-0.027555
-0.003872
0.013749
0.023659
0.024407
0.015316
-0.003108
-0.028903
-0.058614
-0.087656
-0.111168
-0.125188
-0.129343
-0.124971
-0.113656
-0.097452
-0.078432
-0.058398
-0.038747
-0.020451
-0.004089
0.010078
0.022029
0.031910
0.039967
0.046492
0.051781
0.056102
0.059667
0.062614
0.065255
0.067257
0.068567
0.069051
0.068396
0.066115
0.061619
0.054372
0.044075
0.030856
0.015402
-0.001020
-0.016686
-0.029672
-0.038198
-0.040624
-0.037188
-0.028800
-0.016708
-0.002529
0.012122
0.025950
0.038162
0.048487
0.057048
0.064191
0.070318
0.075796
0.080944
0.086046
0.091384
0.097256
0.103953
0.111733
0.120759
0.131151
0.142961
0.156223
0.171004
0.187456
0.205855
0.226636
0.258459
0.320262
0.318729
0.314328
0.306815
0.295746
0.280494
0.260290
0.234298
0.201750
0.162164
0.115643
0.063236
0.007251
-0.048723
-0.100341
-0.144177
-0.178171
-0.201316
-0.213433
-0.214690
-0.206398
-0.190304
-0.168431
-0.142857
-0.115514
-0.088072
-0.061903
-0.038131
-0.017860
-0.002489
0.006770
0.008900
0.003429
-0.009241
-0.027596
-0.049005
-0.070061
-0.087296
-0.098082
-0.101670
-0.098443
-0.089513
-0.076404
-0.060738
-0.044005
-0.027418
-0.011859
0.002122
0.014263
0.024536
0.033077
0.040127
0.045973
0.050902
0.055173
0.058994
0.062518
0.065783
0.068601
0.070875
0.072388
0.072760
0.071456
0.067864
0.061449
0.051937
0.039502
0.024890
0.009422
-0.005139
-0.016860
-0.024005
-0.025128
-0.021027
-0.012475
-0.000851
0.012193
0.025112
0.036774
0.046629
0.054682
0.061321
0.067065
0.072377
0.077583
0.082896
0.088477
0.094503
0.101190
0.108805
0.117529
0.127562
0.139039
0.152037
0.166618
0.182878
0.200994
0.221281
0.244215
0.279392
0.311606
0.309866
0.305011
0.296895
0.285183
0.269405
0.249008
0.223436
0.192252
0.155296
0.112903
0.066110
0.016807
-0.032329
-0.078211
-0.118091
-0.149981
-0.172721
-0.185932
-0.189694
-0.184974
-0.173193
-0.156027
-0.135218
-0.112426
-0.089124
-0.066577
-0.045867
-0.028064
-0.014259
-0.005406
-0.002266
-0.005186
-0.013845
-0.027071
-0.042841
-0.058573
-0.071663
-0.080193
-0.083036
-0.080293
-0.072737
-0.061549
-0.048062
-0.033553
-0.019099
-0.005507
0.006706
0.017292
0.026227
0.033659
0.039842
0.045082
0.049684
0.053912
0.057969
0.061921
0.065690
0.069202
0.072295
0.074691
0.075966
0.075555
0.072832
0.067259
0.058574
0.046983
0.033277
0.018826
0.005434
-0.004953
-0.010634
-0.010778
-0.006104
0.002509
0.013603
0.025514
0.036755
0.046331
0.053895
0.059711
0.064427
0.068769
0.073284
0.078258
0.083783
0.089863
0.096551
0.103993
0.112376
0.121911
0.132789
0.145154
0.159107
0.174735
0.192159
0.211583
0.233346
0.257965
0.295871
0.306127
0.304079
0.298836
0.290319
0.278238
0.262207
0.241801
0.216630
0.186436
0.151230
0.111439
0.068057
0.022713
-0.022402
-0.064801
-0.102144
-0.132577
-0.154908
-0.168634
-0.173850
-0.171301
-0.162193
-0.147984
-0.130211
-0.110359
-0.089775
-0.069638
-0.050955
-0.034728
-0.021896
-0.013259
-0.009458
-0.010787
-0.016994
-0.027120
-0.039508
-0.052042
-0.062575
-0.069455
-0.071635
-0.069029
-0.062200
-0.052120
-0.039941
-0.026800
-0.013683
-0.001343
0.009729
0.019295
0.027333
0.033991
0.039535
0.044289
0.048589
0.052737
0.056982
0.061205
0.065429
0.069534
0.073307
0.076424
0.078426
0.078732
0.076709
0.071817
0.063805
0.052898
0.039927
0.026314
0.013895
0.004608
0.000048
0.000445
0.005418
0.013965
0.024584
0.035621
0.045632
0.053692
0.059561
0.063656
0.066811
0.069934
0.073697
0.078410
0.084118
0.090597
0.097777
0.105785
0.114765
0.124909
0.136406
0.149409
0.164038
0.180401
0.198637
0.218968
0.241750
0.267519
0.307472
0.304406
0.301444
0.295815
0.287061
0.274812
0.258696
0.238343
0.213433
0.183787
0.149479
0.110967
0.069205
0.025697
-0.017573
-0.058364
-0.094510
-0.124235
-0.146355
-0.160363
-0.166256
-0.164725
-0.156879
-0.144068
-0.127732
-0.109275
-0.089990
-0.071030
-0.053425
-0.038029
-0.025644
-0.017055
-0.012876
-0.013411
-0.018458
-0.027160
-0.038013
-0.049104
-0.058525
-0.064724
-0.066589
-0.064038
-0.057550
-0.047992
-0.036423
-0.023908
-0.011384
0.000423
0.011033
0.020205
0.027915
0.034302
0.039626
0.044207
0.048378
0.052415
0.056464
0.060857
0.065424
0.069965
0.074222
0.077837
0.080330
0.081099
0.079501
0.074983
0.067290
0.056660
0.043964
0.030685
0.018697
0.009831
0.005412
0.005940
0.010934
0.019337
0.029664
0.040304
0.049851
0.057402
0.062721
0.066229
0.068782
0.071336
0.074628
0.079009
0.084466
0.090983
0.098439
0.106774
0.116093
0.126577
0.138412
0.151760
0.166752
0.183503
0.202162
0.222955
0.246245
0.272573
0.313511
