# vtk DataFile Version 3.0
Scalar Field
ASCII
DATASET RECTILINEAR_GRID
DIMENSIONS 100 26 1
X_COORDINATES 100 double
0.050000 0.150000 0.250000 0.350000 0.450000 0.550000 0.650000 0.750000 0.850000 0.950000 1.050000 1.150000 1.250000 1.350000 1.450000 1.550000 1.650000 1.750000 1.850000 1.950000 2.050000 2.150000 2.250000 2.350000 2.450000 2.550000 2.650000 2.750000 2.850000 2.950000 3.050000 3.150000 3.250000 3.350000 3.450000 3.550000 3.650000 3.750000 3.850000 3.950000 4.050000 4.150000 4.250000 4.350000 4.450000 4.550000 4.650000 4.750000 4.850000 4.950000 5.050000 5.150000 5.250000 5.350000 5.450000 5.550000 5.650000 5.750000 5.850000 5.950000 6.050000 6.150000 6.250000 6.350000 6.450000 6.550000 6.650000 6.750000 6.850000 6.950000 7.050000 7.150000 7.250000 7.350000 7.450000 7.550000 7.650000 7.750000 7.850000 7.950000 8.050000 8.150000 8.250000 8.350000 8.450000 8.550000 8.650000 8.750000 8.850000 8.950000 9.050000 9.150000 9.250000 9.350000 9.450000 9.550000 9.650000 9.750000 9.850000 9.950000 
Y_COORDINATES 26 double
0.050000 0.150000 0.250000 0.350000 0.450000 0.550000 0.650000 0.750000 0.850000 0.950000 1.050000 1.150000 1.250000 1.350000 1.450000 1.550000 1.650000 1.750000 1.850000 1.950000 2.050000 2.150000 2.250000 2.350000 2.450000 2.550000 
Z_COORDINATES 1 double
0.0
POINT_DATA 2600
SCALARS Skalarfeld double 1
LOOKUP_TABLE default
0.156774
0.152867
0.144620
0.131642
0.113728
0.090825
0.063116
0.031144
-0.004080
-0.041045
-0.077874
-0.112621
-0.143608
-0.169645
-0.190117
-0.204944
-0.214488
-0.219432
-0.220654
-0.219115
-0.215755
-0.211390
-0.206608
-0.201688
-0.196572
-0.190906
-0.184100
-0.175671
-0.165346
-0.153124
-0.139278
-0.124277
-0.108699
-0.093142
-0.078146
-0.064151
-0.051471
-0.040289
-0.030662
-0.022538
-0.015783
-0.010210
-0.005607
-0.001773
0.001468
0.004258
0.006700
0.008874
0.010839
0.012642
0.014311
0.015923
0.017478
0.018979
0.020429
0.021823
0.023154
0.024411
0.025584
0.026660
0.027633
0.028497
0.029250
0.029895
0.030436
0.030879
0.031234
0.031509
0.031715
0.031859
0.031951
0.031999
0.032010
0.031991
0.031946
0.031882
0.031801
0.031707
0.031603
0.031491
0.031373
0.031252
0.031127
0.031001
0.030873
0.030746
0.030618
0.030492
0.030367
0.030244
0.030122
0.030002
0.029883
0.029764
0.029644
0.029520
0.029385
0.029229
0.029021
0.028962
0.160172
0.157125
0.149102
0.136064
0.117849
0.094352
0.065688
0.032368
-0.004538
-0.043345
-0.081882
-0.117946
-0.149724
-0.176022
-0.196293
-0.210559
-0.219290
-0.223270
-0.223476
-0.220969
-0.216792
-0.211862
-0.206842
-0.202029
-0.197291
-0.192144
-0.185888
-0.177862
-0.167728
-0.155488
-0.141455
-0.126157
-0.110233
-0.094322
-0.078998
-0.064718
-0.051802
-0.040430
-0.030654
-0.022417
-0.015578
-0.009943
-0.005300
-0.001443
0.001805
0.004584
0.007003
0.009143
0.011071
0.012844
0.014517
0.016091
0.017605
0.019071
0.020492
0.021866
0.023183
0.024431
0.025597
0.026670
0.027641
0.028502
0.029254
0.029896
0.030435
0.030877
0.031229
0.031503
0.031706
0.031849
0.031940
0.031987
0.031998
0.031978
0.031933
0.031869
0.031788
0.031695
0.031591
0.031480
0.031363
0.031242
0.031118
0.030992
0.030865
0.030738
0.030611
0.030485
0.030361
0.030238
0.030117
0.029998
0.029880
0.029764
0.029647
0.029530
0.029411
0.029288
0.029170
0.029126
0.169100
0.166266
0.158341
0.145159
0.126420
0.101829
0.071301
0.035223
-0.005257
-0.048071
-0.090318
-0.129173
-0.162559
-0.189313
-0.209072
-0.222093
-0.229075
-0.231010
-0.229072
-0.224521
-0.218614
-0.212490
-0.206999
-0.202499
-0.198731
-0.194902
-0.189967
-0.182883
-0.173202
-0.160945
-0.146526
-0.130606
-0.113944
-0.097275
-0.081231
-0.066301
-0.052818
-0.040962
-0.030780
-0.022207
-0.015099
-0.009262
-0.004483
-0.000554
0.002707
0.005450
0.007797
0.009843
0.011666
0.013333
0.014898
0.016389
0.017832
0.019241
0.020619
0.021963
0.023260
0.024496
0.025655
0.026723
0.027689
0.028546
0.029293
0.029930
0.030463
0.030898
0.031245
0.031513
0.031711
0.031849
0.031936
0.031980
0.031988
0.031967
0.031921
0.031856
0.031774
0.031681
0.031577
0.031466
0.031349
0.031228
0.031105
0.030979
0.030853
0.030726
0.030600
0.030475
0.030351
0.030229
0.030108
0.029990
0.029875
0.029762
0.029651
0.029543
0.029440
0.029344
0.029268
0.029238
0.183150
0.180403
0.172566
0.159268
0.139923
0.113856
0.080555
0.040074
-0.006407
-0.056196
-0.104750
-0.148056
-0.183731
-0.210843
-0.229444
-0.240212
-0.244218
-0.242770
-0.237318
-0.229409
-0.220640
-0.212550
-0.206363
-0.202599
-0.200770
-0.199435
-0.196844
-0.191357
-0.182362
-0.169966
-0.154799
-0.137772
-0.119855
-0.101930
-0.084718
-0.068753
-0.054378
-0.041773
-0.030971
-0.021900
-0.014407
-0.008291
-0.003335
0.000676
0.003937
0.006615
0.008848
0.010752
0.012422
0.013938
0.015361
0.016735
0.018092
0.019436
0.020769
0.022084
0.023364
0.024592
0.025748
0.026814
0.027779
0.028633
0.029375
0.030005
0.030529
0.030956
0.031293
0.031551
0.031740
0.031871
0.031951
0.031989
0.031992
0.031966
0.031917
0.031849
0.031766
0.031670
0.031566
0.031454
0.031337
0.031215
0.031092
0.030966
0.030840
0.030713
0.030587
0.030462
0.030338
0.030217
0.030097
0.029981
0.029867
0.029757
0.029652
0.029552
0.029461
0.029382
0.029324
0.029301
0.202153
0.199538
0.191975
0.178840
0.159117
0.131489
0.094611
0.047741
-0.008179
-0.069692
-0.128255
-0.177792
-0.215987
-0.242738
-0.258928
-0.265907
-0.265270
-0.258721
-0.248026
-0.235069
-0.221911
-0.210765
-0.203601
-0.201368
-0.203209
-0.206485
-0.207807
-0.204785
-0.196645
-0.183747
-0.167172
-0.148272
-0.128352
-0.108505
-0.089566
-0.072110
-0.056490
-0.042866
-0.031252
-0.021550
-0.013589
-0.007151
-0.002001
0.002091
0.005338
0.007927
0.010019
0.011749
0.013234
0.014569
0.015831
0.017075
0.018337
0.019615
0.020907
0.022200
0.023474
0.024703
0.025864
0.026936
0.027903
0.028757
0.029494
0.030117
0.030631
0.031045
0.031370
0.031615
0.031793
0.031912
0.031982
0.032011
0.032007
0.031975
0.031920
0.031848
0.031762
0.031664
0.031557
0.031444
0.031325
0.031203
0.031078
0.030952
0.030825
0.030698
0.030572
0.030447
0.030323
0.030202
0.030083
0.029968
0.029856
0.029748
0.029647
0.029553
0.029469
0.029399
0.029348
0.029325
0.225860
0.223525
0.216662
0.204358
0.185029
0.156367
0.115521
0.059910
-0.010704
-0.092722
-0.166622
-0.223559
-0.263187
-0.287662
-0.299261
-0.300227
-0.292789
-0.279064
-0.261069
-0.240964
-0.221308
-0.205363
-0.196553
-0.196907
-0.205116
-0.216468
-0.224502
-0.224978
-0.217680
-0.203546
-0.184516
-0.162669
-0.139784
-0.117214
-0.095904
-0.076458
-0.059212
-0.044293
-0.031673
-0.021217
-0.012716
-0.005920
-0.000568
0.003598
0.006814
0.009292
0.011215
0.012743
0.014014
0.015146
0.016231
0.017336
0.018503
0.019724
0.020986
0.022274
0.023557
0.024805
0.025986
0.027074
0.028053
0.028911
0.029646
0.030262
0.030764
0.031164
0.031473
0.031703
0.031865
0.031970
0.032027
0.032045
0.032031
0.031991
0.031930
0.031853
0.031762
0.031660
0.031551
0.031435
0.031315
0.031191
0.031065
0.030938
0.030810
0.030683
0.030556
0.030430
0.030306
0.030185
0.030066
0.029951
0.029840
0.029734
0.029634
0.029543
0.029463
0.029396
0.029347
0.029319
0.253753
0.251937
0.246469
0.236174
0.218845
0.190852
0.146813
0.080113
-0.013848
-0.134714
-0.230264
-0.292263
-0.329046
-0.347512
-0.351352
-0.343547
-0.326889
-0.303828
-0.276551
-0.247436
-0.218727
-0.195163
-0.182793
-0.186172
-0.203617
-0.227480
-0.246863
-0.252380
-0.245640
-0.229139
-0.206354
-0.180413
-0.153658
-0.127675
-0.103473
-0.081642
-0.062473
-0.046041
-0.032263
-0.020953
-0.011855
-0.004676
0.000883
0.005111
0.008276
0.010614
0.012336
0.013628
0.014656
0.015560
0.016454
0.017419
0.018503
0.019683
0.020940
0.022249
0.023571
0.024864
0.026088
0.027211
0.028214
0.029086
0.029823
0.030433
0.030923
0.031307
0.031599
0.031810
0.031954
0.032042
0.032085
0.032090
0.032064
0.032015
0.031946
0.031861
0.031765
0.031659
0.031546
0.031427
0.031304
0.031179
0.031051
0.030923
0.030794
0.030665
0.030537
0.030411
0.030286
0.030164
0.030045
0.029929
0.029818
0.029712
0.029613
0.029523
0.029443
0.029376
0.029324
0.029288
0.284877
0.283886
0.280738
0.274158
0.261531
0.237904
0.194319
0.116019
-0.017007
-0.218032
-0.335091
-0.387819
-0.411943
-0.419618
-0.412661
-0.393988
-0.367010
-0.333065
-0.294841
-0.255090
-0.217345
-0.183441
-0.163245
-0.167641
-0.194405
-0.232518
-0.266891
-0.282429
-0.275740
-0.255921
-0.228634
-0.198218
-0.167473
-0.138089
-0.111044
-0.086872
-0.065804
-0.047866
-0.032931
-0.020766
-0.011074
-0.003523
0.002224
0.006490
0.009571
0.011734
0.013217
0.014236
0.014988
0.015643
0.016338
0.017172
0.018199
0.019372
0.020665
0.022043
0.023452
0.024834
0.026137
0.027324
0.028371
0.029268
0.030016
0.030622
0.031102
0.031469
0.031740
0.031931
0.032055
0.032125
0.032150
0.032141
0.032102
0.032042
0.031964
0.031872
0.031770
0.031659
0.031542
0.031420
0.031294
0.031166
0.031037
0.030907
0.030776
0.030646
0.030517
0.030389
0.030263
0.030140
0.030020
0.029903
0.029791
0.029684
0.029584
0.029492
0.029410
0.029339
0.029283
0.029236
0.317718
0.317862
0.318005
0.317121
0.312857
0.299947
0.266421
0.184861
-0.014213
-0.397757
-0.493979
-0.494955
-0.494052
-0.490622
-0.473798
-0.447992
-0.410868
-0.366332
-0.317804
-0.267865
-0.220362
-0.181803
-0.152464
-0.153049
-0.183139
-0.227941
-0.270870
-0.298002
-0.295406
-0.273237
-0.242764
-0.209455
-0.176302
-0.144904
-0.116138
-0.090478
-0.068138
-0.049142
-0.033360
-0.020557
-0.010422
-0.002604
0.003254
0.007496
0.010439
0.012375
0.013571
0.014276
0.014723
0.015116
0.015619
0.016349
0.017369
0.018589
0.019998
0.021533
0.023110
0.024651
0.026090
0.027382
0.028502
0.029443
0.030211
0.030821
0.031291
0.031642
0.031892
0.032061
0.032164
0.032213
0.032221
0.032195
0.032143
0.032072
0.031984
0.031884
0.031775
0.031659
0.031537
0.031412
0.031283
0.031153
0.031021
0.030889
0.030757
0.030625
0.030494
0.030365
0.030238
0.030113
0.029991
0.029872
0.029758
0.029649
0.029547
0.029452
0.029365
0.029289
0.029226
0.029166
0.350212
0.351684
0.355769
0.362120
0.369685
0.375335
0.369531
0.321026
0.087805
-0.733472
-0.676528
-0.558902
-0.538330
-0.534069
-0.523068
-0.493388
-0.449930
-0.399515
-0.346944
-0.294050
-0.243787
-0.202592
-0.177520
-0.175889
-0.196410
-0.230037
-0.263844
-0.286089
-0.290169
-0.270806
-0.240521
-0.207639
-0.175099
-0.144261
-0.115865
-0.090365
-0.068020
-0.048919
-0.033001
-0.020077
-0.009871
-0.002054
0.003723
0.007798
0.010494
0.012115
0.012952
0.013292
0.013407
0.013540
0.013888
0.014582
0.015665
0.017056
0.018729
0.020566
0.022442
0.024247
0.025900
0.027353
0.028584
0.029594
0.030397
0.031018
0.031482
0.031817
0.032047
0.032193
0.032273
0.032302
0.032291
0.032249
0.032184
0.032101
0.032004
0.031896
0.031780
0.031659
0.031532
0.031403
0.031271
0.031138
0.031004
0.030870
0.030736
0.030602
0.030470
0.030339
0.030209
0.030082
0.029958
0.029837
0.029720
0.029608
0.029502
0.029402
0.029310
0.029228
0.029155
0.029082
0.379956
0.382707
0.390637
0.404268
0.424484
0.452421
0.488791
0.530229
0.614990
-0.059241
-0.608356
-0.540184
-0.537866
-0.543016
-0.537514
-0.513602
-0.474429
-0.428348
-0.382843
-0.340483
-0.301532
-0.270681
-0.253824
-0.245710
-0.246773
-0.253506
-0.261755
-0.265668
-0.260327
-0.244877
-0.219974
-0.190662
-0.161663
-0.134024
-0.108293
-0.084889
-0.064134
-0.046221
-0.031192
-0.018949
-0.009287
-0.001934
0.003409
0.007050
0.009291
0.010434
0.010792
0.010687
0.010439
0.010340
0.010620
0.011427
0.012707
0.014529
0.016712
0.019059
0.021396
0.023587
0.025543
0.027218
0.028601
0.029705
0.030559
0.031199
0.031662
0.031984
0.032195
0.032319
0.032378
0.032386
0.032357
0.032300
0.032221
0.032127
0.032020
0.031905
0.031783
0.031656
0.031526
0.031393
0.031258
0.031122
0.030986
0.030850
0.030713
0.030578
0.030443
0.030310
0.030178
0.030049
0.029921
0.029797
0.029677
0.029561
0.029450
0.029344
0.029246
0.029155
0.029073
0.028985
0.404645
0.408340
0.419089
0.437986
0.467153
0.510318
0.574048
0.669588
0.801447
0.836352
0.000000
-0.534659
-0.529134
-0.522291
-0.516589
-0.503288
-0.478497
-0.451610
-0.428574
-0.410017
-0.393543
-0.378268
-0.364206
-0.341986
-0.317109
-0.292728
-0.270524
-0.249423
-0.227899
-0.206092
-0.183527
-0.160759
-0.136982
-0.114332
-0.093030
-0.073378
-0.055716
-0.040317
-0.027320
-0.016720
-0.008396
-0.002155
0.002234
0.005015
0.006454
0.006842
0.006515
0.005847
0.005221
0.004986
0.005396
0.006562
0.008493
0.011102
0.014069
0.017126
0.020061
0.022732
0.025052
0.026990
0.028551
0.029767
0.030683
0.031351
0.031819
0.032131
0.032325
0.032430
0.032469
0.032459
0.032414
0.032342
0.032252
0.032147
0.032032
0.031910
0.031782
0.031651
0.031517
0.031380
0.031243
0.031105
0.030966
0.030827
0.030689
0.030551
0.030415
0.030279
0.030145
0.030012
0.029882
0.029754
0.029629
0.029508
0.029392
0.029280
0.029174
0.029074
0.028982
0.028877
0.422581
0.426698
0.438640
0.459526
0.491374
0.537187
0.600464
0.683201
0.780191
0.871258
0.784727
0.000000
-0.513324
-0.497515
-0.482165
-0.473662
-0.468760
-0.469410
-0.478427
-0.492699
-0.503912
-0.504450
-0.484534
-0.443294
-0.391028
-0.335779
-0.283898
-0.237971
-0.198681
-0.167201
-0.142062
-0.121461
-0.103953
-0.086931
-0.070974
-0.056113
-0.042629
-0.030824
-0.020896
-0.012901
-0.006782
-0.002419
0.000339
0.001673
0.001807
0.001043
-0.000232
-0.001556
-0.002462
-0.002557
-0.001613
0.000487
0.003605
0.007311
0.011238
0.015096
0.018673
0.021836
0.024523
0.026720
0.028457
0.029783
0.030763
0.031461
0.031938
0.032245
0.032427
0.032517
0.032540
0.032515
0.032456
0.032372
0.032272
0.032159
0.032037
0.031909
0.031777
0.031642
0.031504
0.031365
0.031225
0.031085
0.030944
0.030804
0.030663
0.030523
0.030384
0.030246
0.030109
0.029973
0.029839
0.029707
0.029578
0.029452
0.029329
0.029210
0.029096
0.028986
0.028883
0.028762
0.433014
0.437016
0.448531
0.468321
0.497628
0.538036
0.591022
0.654965
0.716691
0.739225
0.698197
0.584716
0.000000
-0.475204
-0.452893
-0.444941
-0.455066
-0.480714
-0.521993
-0.570148
-0.607141
-0.618064
-0.586089
-0.525278
-0.449516
-0.369339
-0.292787
-0.225742
-0.171222
-0.129980
-0.100543
-0.080168
-0.065661
-0.054298
-0.043755
-0.034015
-0.025217
-0.017658
-0.011560
-0.006988
-0.003905
-0.002238
-0.001892
-0.002727
-0.004508
-0.006862
-0.009278
-0.011172
-0.012014
-0.011461
-0.009260
-0.005514
-0.000986
0.003896
0.008772
0.013370
0.017508
0.021086
0.024069
0.026474
0.028349
0.029764
0.030795
0.031520
0.032007
0.032314
0.032490
0.032570
0.032582
0.032547
0.032479
0.032387
0.032280
0.032161
0.032034
0.031902
0.031766
0.031628
0.031488
0.031347
0.031205
0.031063
0.030920
0.030778
0.030636
0.030494
0.030352
0.030211
0.030071
0.029932
0.029794
0.029658
0.029523
0.029391
0.029262
0.029135
0.029012
0.028893
0.028778
0.028640
0.436162
0.439652
0.449622
0.466488
0.490770
0.522651
0.560834
0.600456
0.628560
0.619772
0.555791
0.471234
0.310353
0.000000
-0.442053
-0.431214
-0.441239
-0.480399
-0.544313
-0.620388
-0.680811
-0.694063
-0.649451
-0.572029
-0.477849
-0.379967
-0.287876
-0.207823
-0.143130
-0.094608
-0.061038
-0.039728
-0.027011
-0.019113
-0.013332
-0.008375
-0.004164
-0.000996
0.000871
0.001423
0.000743
-0.001091
-0.003981
-0.007746
-0.012032
-0.016284
-0.019798
-0.021882
-0.022055
-0.020010
-0.015647
-0.010275
-0.004426
0.001474
0.007106
0.012249
0.016771
0.020613
0.023776
0.026299
0.028252
0.029717
0.030780
0.031523
0.032019
0.032330
0.032505
0.032582
0.032591
0.032552
0.032479
0.032383
0.032272
0.032150
0.032021
0.031887
0.031749
0.031609
0.031468
0.031325
0.031182
0.031038
0.030895
0.030750
0.030606
0.030462
0.030319
0.030175
0.030032
0.029889
0.029747
0.029606
0.029466
0.029328
0.029191
0.029057
0.028925
0.028795
0.028668
0.028514
0.432967
0.435724
0.443488
0.456266
0.473840
0.495286
0.518054
0.536457
0.539607
0.510001
0.430083
0.292048
0.149471
-0.255407
-0.450679
-0.391807
-0.410006
-0.464195
-0.545123
-0.635739
-0.704984
-0.707108
-0.657286
-0.573038
-0.472027
-0.368213
-0.271195
-0.186788
-0.117899
-0.065356
-0.028471
-0.005257
0.007479
0.013791
0.017218
0.018880
0.019221
0.018415
0.016021
0.012196
0.007181
0.001147
-0.005706
-0.013013
-0.020151
-0.026273
-0.030476
-0.032065
-0.030677
-0.025877
-0.019760
-0.013030
-0.006196
0.000379
0.006449
0.011860
0.016536
0.020461
0.023665
0.026209
0.028174
0.029647
0.030717
0.031468
0.031972
0.032289
0.032470
0.032552
0.032564
0.032526
0.032455
0.032360
0.032249
0.032127
0.031998
0.031864
0.031726
0.031585
0.031443
0.031300
0.031156
0.031012
0.030867
0.030722
0.030576
0.030430
0.030284
0.030138
0.029992
0.029845
0.029699
0.029553
0.029408
0.029263
0.029119
0.028976
0.028835
0.028695
0.028556
0.028385
0.424757
0.426662
0.431926
0.440258
0.450965
0.462544
0.472029
0.474062
0.459847
0.416313
0.326475
0.168111
-0.105632
-0.660284
-0.509551
-0.393175
-0.397879
-0.454307
-0.536199
-0.621368
-0.677730
-0.667737
-0.615606
-0.534248
-0.438560
-0.340802
-0.249409
-0.169335
-0.102868
-0.050520
-0.011855
0.014002
0.028861
0.036465
0.040860
0.043416
0.041884
0.038322
0.032028
0.023796
0.014217
0.003657
-0.007449
-0.018385
-0.028121
-0.035493
-0.039522
-0.039605
-0.034839
-0.028312
-0.020968
-0.013441
-0.006148
0.000644
0.006772
0.012149
0.016747
0.020583
0.023705
0.026184
0.028103
0.029550
0.030610
0.031360
0.031870
0.032197
0.032388
0.032481
0.032501
0.032472
0.032407
0.032317
0.032210
0.032091
0.031965
0.031832
0.031695
0.031556
0.031415
0.031272
0.031128
0.030983
0.030838
0.030692
0.030545
0.030397
0.030249
0.030100
0.029951
0.029801
0.029650
0.029500
0.029348
0.029197
0.029045
0.028894
0.028743
0.028592
0.028443
0.028256
0.413085
0.414153
0.417000
0.421174
0.425759
0.429082
0.428296
0.418847
0.393960
0.344221
0.257270
0.117427
-0.094213
-0.355056
-0.388077
-0.375850
-0.395341
-0.445235
-0.512274
-0.575134
-0.599675
-0.585912
-0.539420
-0.470158
-0.389197
-0.306012
-0.227419
-0.157612
-0.098676
-0.051222
-0.014954
0.011019
0.028379
0.039783
0.047411
0.052691
0.055845
0.051850
0.043291
0.031981
0.018845
0.004570
-0.009958
-0.023495
-0.034542
-0.041762
-0.044271
-0.040453
-0.034286
-0.026957
-0.019257
-0.011682
-0.004536
0.002003
0.007836
0.012921
0.017256
0.020874
0.023827
0.026184
0.028023
0.029423
0.030460
0.031205
0.031721
0.032060
0.032266
0.032374
0.032408
0.032391
0.032337
0.032256
0.032156
0.032043
0.031921
0.031792
0.031659
0.031522
0.031382
0.031241
0.031097
0.030953
0.030807
0.030661
0.030513
0.030364
0.030214
0.030063
0.029910
0.029757
0.029602
0.029446
0.029289
0.029130
0.028971
0.028811
0.028650
0.028490
0.028329
0.028126
0.399475
0.399804
0.400543
0.401192
0.400799
0.397786
0.389695
0.372944
0.342639
0.292590
0.215684
0.105349
-0.038931
-0.194061
-0.275254
-0.317695
-0.357402
-0.404527
-0.454220
-0.492089
-0.503787
-0.490679
-0.454357
-0.400852
-0.337590
-0.271409
-0.207594
-0.149665
-0.099590
-0.058146
-0.025259
-0.000206
0.018316
0.032012
0.042356
0.050547
0.053955
0.051550
0.044092
0.032697
0.018549
0.002935
-0.012627
-0.026343
-0.036399
-0.041596
-0.040103
-0.035637
-0.029467
-0.022516
-0.015388
-0.008461
-0.001963
0.003972
0.009272
0.013906
0.017877
0.021212
0.023957
0.026169
0.027913
0.029258
0.030270
0.031010
0.031533
0.031887
0.032111
0.032237
0.032289
0.032288
0.032248
0.032179
0.032089
0.031985
0.031869
0.031746
0.031617
0.031483
0.031346
0.031207
0.031065
0.030921
0.030776
0.030629
0.030481
0.030331
0.030179
0.030026
0.029871
0.029714
0.029555
0.029393
0.029230
0.029065
0.028898
0.028729
0.028558
0.028387
0.028215
0.027998
0.385278
0.384999
0.384035
0.381903
0.377738
0.370181
0.357268
0.336340
0.304066
0.256684
0.190646
0.104095
0.000214
-0.107791
-0.189721
-0.248974
-0.297820
-0.342382
-0.381148
-0.407295
-0.415654
-0.406138
-0.379774
-0.340265
-0.292499
-0.241300
-0.190674
-0.143512
-0.101611
-0.065842
-0.036349
-0.012724
0.005856
0.020435
0.032087
0.040314
0.044195
0.043178
0.037484
0.027837
0.015320
0.001377
-0.012207
-0.023480
-0.030758
-0.032778
-0.031258
-0.027536
-0.022455
-0.016680
-0.010679
-0.004767
0.000850
0.006042
0.010729
0.014872
0.018460
0.021506
0.024041
0.026109
0.027762
0.029054
0.030043
0.030779
0.031312
0.031683
0.031928
0.032075
0.032149
0.032167
0.032143
0.032088
0.032011
0.031917
0.031810
0.031693
0.031570
0.031441
0.031308
0.031171
0.031031
0.030889
0.030745
0.030598
0.030449
0.030299
0.030146
0.029990
0.029833
0.029672
0.029509
0.029343
0.029173
0.029001
0.028826
0.028647
0.028467
0.028285
0.028102
0.027872
0.371596
0.370849
0.368583
0.364382
0.357514
0.346887
0.331006
0.307984
0.275651
0.231842
0.174974
0.105030
0.025109
-0.057266
-0.129663
-0.189431
-0.239276
-0.281275
-0.314732
-0.336795
-0.345214
-0.339709
-0.321265
-0.292388
-0.256425
-0.216831
-0.176647
-0.138217
-0.103129
-0.072268
-0.045945
-0.024030
-0.006087
0.008463
0.020108
0.028349
0.032821
0.033231
0.029672
0.022670
0.013176
0.002531
-0.007671
-0.015869
-0.020881
-0.022572
-0.021856
-0.019332
-0.015579
-0.011093
-0.006256
-0.001354
0.003410
0.007896
0.012010
0.015697
0.018932
0.021713
0.024057
0.025994
0.027564
0.028811
0.029781
0.030518
0.031064
0.031455
0.031722
0.031894
0.031991
0.032030
0.032025
0.031988
0.031924
0.031842
0.031745
0.031636
0.031520
0.031396
0.031267
0.031134
0.030997
0.030856
0.030713
0.030567
0.030419
0.030268
0.030114
0.029957
0.029797
0.029633
0.029466
0.029295
0.029120
0.028940
0.028756
0.028568
0.028377
0.028184
0.027989
0.027746
0.359284
0.358189
0.354972
0.349298
0.340585
0.327989
0.310410
0.286546
0.255020
0.214636
0.164794
0.106070
0.040890
-0.026187
-0.089043
-0.144524
-0.192052
-0.231567
-0.262329
-0.282998
-0.292343
-0.290218
-0.277578
-0.256294
-0.228806
-0.197694
-0.165318
-0.133589
-0.103883
-0.077056
-0.053516
-0.033325
-0.016317
-0.002229
0.009117
0.017425
0.022524
0.024286
0.022804
0.018490
0.012097
0.004677
-0.002578
-0.008569
-0.012531
-0.014320
-0.014241
-0.012648
-0.009934
-0.006470
-0.002576
0.001495
0.005546
0.009434
0.013056
0.016348
0.019275
0.021823
0.023999
0.025822
0.027321
0.028530
0.029487
0.030230
0.030792
0.031206
0.031500
0.031698
0.031820
0.031883
0.031899
0.031879
0.031831
0.031762
0.031676
0.031577
0.031467
0.031350
0.031226
0.031096
0.030962
0.030824
0.030683
0.030538
0.030390
0.030238
0.030084
0.029925
0.029763
0.029597
0.029427
0.029251
0.029070
0.028884
0.028691
0.028493
0.028290
0.028083
0.027877
0.027622
0.348976
0.347622
0.343724
0.337039
0.327117
0.313320
0.294849
0.270811
0.240343
0.202806
0.158069
0.106841
0.050969
-0.006550
-0.062077
-0.112888
-0.157428
-0.194712
-0.223818
-0.243873
-0.254115
-0.254512
-0.245945
-0.229917
-0.208333
-0.183222
-0.156481
-0.129703
-0.104084
-0.080427
-0.059184
-0.040533
-0.024479
-0.010943
0.000115
0.008514
0.014167
0.017028
0.017199
0.015002
0.011011
0.006009
0.000877
-0.003575
-0.006778
-0.008476
-0.008706
-0.007673
-0.005642
-0.002894
0.000311
0.003751
0.007243
0.010648
0.013866
0.016828
0.019492
0.021840
0.023871
0.025596
0.027035
0.028216
0.029167
0.029919
0.030502
0.030943
0.031266
0.031493
0.031642
0.031730
0.031768
0.031767
0.031735
0.031680
0.031605
0.031515
0.031414
0.031303
0.031184
0.031059
0.030928
0.030793
0.030654
0.030510
0.030363
0.030212
0.030057
0.029898
0.029734
0.029566
0.029392
0.029212
0.029026
0.028833
0.028631
0.028422
0.028205
0.027983
0.027761
0.027495
0.341144
0.339568
0.335169
0.327800
0.317116
0.302625
0.283735
0.259821
0.230331
0.194936
0.153719
0.107379
0.057367
0.005853
-0.044607
-0.091707
-0.133673
-0.169165
-0.197133
-0.216812
-0.227691
-0.229813
-0.223978
-0.211460
-0.193842
-0.172813
-0.149971
-0.126683
-0.104013
-0.082705
-0.063225
-0.045814
-0.030569
-0.017513
-0.006666
0.001829
0.007917
0.011586
0.012929
0.012204
0.009860
0.006505
0.002825
-0.000535
-0.003093
-0.004571
-0.004891
-0.004153
-0.002539
-0.000262
0.002464
0.005446
0.008519
0.011553
0.014452
0.017147
0.019596
0.021778
0.023688
0.025332
0.026725
0.027885
0.028837
0.029603
0.030210
0.030678
0.031031
0.031288
0.031465
0.031577
0.031637
0.031656
0.031640
0.031598
0.031535
0.031455
0.031362
0.031257
0.031144
0.031023
0.030896
0.030764
0.030627
0.030485
0.030339
0.030188
0.030033
0.029874
0.029709
0.029539
0.029363
0.029180
0.028989
0.028790
0.028580
0.028358
0.028125
0.027883
0.027639
0.027361
0.336198
0.334302
0.329482
0.321656
0.310519
0.295658
0.276605
0.252890
0.224137
0.190174
0.151175
0.107798
0.061260
0.013301
-0.034021
-0.078667
-0.118851
-0.153114
-0.180335
-0.199754
-0.210999
-0.214189
-0.210043
-0.199694
-0.184540
-0.166067
-0.145691
-0.124639
-0.103886
-0.084135
-0.065852
-0.049310
-0.034653
-0.021955
-0.011245
-0.002666
0.003736
0.007953
0.010062
0.010277
0.008968
0.006644
0.003879
0.001231
-0.000852
-0.002121
-0.002445
-0.001860
-0.000492
0.001490
0.003905
0.006581
0.009368
0.012145
0.014817
0.017321
0.019615
0.021676
0.023498
0.025084
0.026444
0.027592
0.028547
0.029329
0.029956
0.030450
0.030829
0.031110
0.031311
0.031444
0.031523
0.031558
0.031556
0.031526
0.031473
0.031402
0.031315
0.031217
0.031108
0.030992
0.030868
0.030738
0.030603
0.030463
0.030318
0.030168
0.030014
0.029855
0.029690
0.029519
0.029341
0.029156
0.028962
0.028757
0.028539
0.028306
0.028055
0.027784
0.027498
0.027212
0.334737
0.331921
0.326699
0.318605
0.307255
0.292250
0.273171
0.249619
0.221292
0.188080
0.150186
0.108230
0.063317
0.017002
-0.028855
-0.072335
-0.111662
-0.145338
-0.172219
-0.191580
-0.203040
-0.206760
-0.203435
-0.194130
-0.180151
-0.162888
-0.143670
-0.123662
-0.103797
-0.084766
-0.067037
-0.050902
-0.036533
-0.024038
-0.013514
-0.004930
0.001639
0.006149
0.008651
0.009331
0.008524
0.006692
0.004358
0.002021
0.000078
-0.001090
-0.001398
-0.000867
0.000400
0.002257
0.004536
0.007078
0.009740
0.012402
0.014976
0.017396
0.019621
0.021629
0.023412
0.024971
0.026315
0.027457
0.028413
0.029200
0.029837
0.030342
0.030733
0.031027
0.031239
0.031383
0.031471
0.031514
0.031519
0.031495
0.031446
0.031379
0.031295
0.031200
0.031093
0.030978
0.030856
0.030728
0.030593
0.030454
0.030310
0.030160
0.030006
0.029846
0.029681
0.029510
0.029331
0.029145
0.028949
0.028741
0.028519
0.028278
0.028010
0.027703
0.027328
0.027043
