# vtk DataFile Version 3.0
Vector Field
ASCII
DATASET RECTILINEAR_GRID
DIMENSIONS 100 26 1
X_COORDINATES 100 double
0.050000 0.150000 0.250000 0.350000 0.450000 0.550000 0.650000 0.750000 0.850000 0.950000 1.050000 1.150000 1.250000 1.350000 1.450000 1.550000 1.650000 1.750000 1.850000 1.950000 2.050000 2.150000 2.250000 2.350000 2.450000 2.550000 2.650000 2.750000 2.850000 2.950000 3.050000 3.150000 3.250000 3.350000 3.450000 3.550000 3.650000 3.750000 3.850000 3.950000 4.050000 4.150000 4.250000 4.350000 4.450000 4.550000 4.650000 4.750000 4.850000 4.950000 5.050000 5.150000 5.250000 5.350000 5.450000 5.550000 5.650000 5.750000 5.850000 5.950000 6.050000 6.150000 6.250000 6.350000 6.450000 6.550000 6.650000 6.750000 6.850000 6.950000 7.050000 7.150000 7.250000 7.350000 7.450000 7.550000 7.650000 7.750000 7.850000 7.950000 8.050000 8.150000 8.250000 8.350000 8.450000 8.550000 8.650000 8.750000 8.850000 8.950000 9.050000 9.150000 9.250000 9.350000 9.450000 9.550000 9.650000 9.750000 9.850000 9.950000 
Y_COORDINATES 26 double
0.050000 0.150000 0.250000 0.350000 0.450000 0.550000 0.650000 0.750000 0.850000 0.950000 1.050000 1.150000 1.250000 1.350000 1.450000 1.550000 1.650000 1.750000 1.850000 1.950000 2.050000 2.150000 2.250000 2.350000 2.450000 2.550000 
Z_COORDINATES 1 double
0.0
POINT_DATA 2600
VECTORS Vektorfeld double
1.000827 -0.000827 0.0
1.004571 -0.002918 0.0
1.012633 -0.005143 0.0
1.025159 -0.007383 0.0
1.042088 -0.009545 0.0
1.063144 -0.011511 0.0
1.087783 -0.013127 0.0
1.115124 -0.014214 0.0
1.143952 -0.014613 0.0
1.172801 -0.014237 0.0
1.200174 -0.013137 0.0
1.224802 -0.011490 0.0
1.245828 -0.009535 0.0
1.262878 -0.007514 0.0
1.276026 -0.005634 0.0
1.285712 -0.004052 0.0
1.292638 -0.002874 0.0
1.297663 -0.002151 0.0
1.301695 -0.001882 0.0
1.305582 -0.002005 0.0
1.309982 -0.002395 0.0
1.315232 -0.002855 0.0
1.321225 -0.003138 0.0
1.327352 -0.002989 0.0
1.332557 -0.002216 0.0
1.335530 -0.000757 0.0
1.334943 0.001344 0.0
1.329667 0.003932 0.0
1.318952 0.006783 0.0
1.302507 0.009662 0.0
1.280477 0.012368 0.0
1.253363 0.014746 0.0
1.221927 0.016691 0.0
1.187093 0.018143 0.0
1.149877 0.019073 0.0
1.111332 0.019472 0.0
1.072516 0.019344 0.0
1.034476 0.018696 0.0
0.998247 0.017534 0.0
0.964855 0.015858 0.0
0.935340 0.013656 0.0
0.910790 0.010893 0.0
0.892385 0.007512 0.0
0.881393 0.003480 0.0
0.878953 -0.001040 0.0
0.885659 -0.005666 0.0
0.901549 -0.010224 0.0
0.926335 -0.014562 0.0
0.959381 -0.018483 0.0
0.999606 -0.021742 0.0
1.045394 -0.024046 0.0
1.094500 -0.025059 0.0
1.144001 -0.024442 0.0
1.190386 -0.021943 0.0
1.229880 -0.017552 0.0
1.259077 -0.011645 0.0
1.275742 -0.005020 0.0
1.279318 0.001444 0.0
1.270474 0.007400 0.0
1.250452 0.012623 0.0
1.220908 0.016921 0.0
1.183816 0.020171 0.0
1.141327 0.022318 0.0
1.095645 0.023364 0.0
1.048934 0.023347 0.0
1.003268 0.022320 0.0
0.960608 0.020340 0.0
0.922796 0.017472 0.0
0.891500 0.013823 0.0
0.868100 0.009577 0.0
0.853501 0.005021 0.0
0.847885 0.000595 0.0
0.850398 -0.003108 0.0
0.859488 -0.005982 0.0
0.873662 -0.008192 0.0
0.891769 -0.009915 0.0
0.912981 -0.011297 0.0
0.936721 -0.012443 0.0
0.962568 -0.013404 0.0
0.990138 -0.014166 0.0
1.018944 -0.014640 0.0
1.048244 -0.014660 0.0
1.076914 -0.014011 0.0
1.103405 -0.012480 0.0
1.125835 -0.009950 0.0
1.142293 -0.006508 0.0
1.151307 -0.002506 0.0
1.152195 0.001618 0.0
1.144932 0.005644 0.0
1.129880 0.009409 0.0
1.107749 0.012722 0.0
1.079635 0.015392 0.0
1.047009 0.017234 0.0
1.011688 0.018087 0.0
0.975753 0.017848 0.0
0.941400 0.016506 0.0
0.910717 0.014177 0.0
0.885437 0.011103 0.0
0.866760 0.007574 0.0
0.854934 0.004252 0.0
1.001377 -0.003031 0.0
1.006532 -0.009614 0.0
1.016420 -0.016396 0.0
1.030950 -0.023186 0.0
1.050037 -0.029758 0.0
1.073454 -0.035773 0.0
1.100710 -0.040760 0.0
1.130936 -0.044149 0.0
1.162834 -0.045404 0.0
1.194750 -0.044211 0.0
1.224951 -0.040737 0.0
1.251999 -0.035567 0.0
1.274993 -0.029479 0.0
1.293602 -0.023229 0.0
1.307987 -0.017452 0.0
1.318685 -0.012619 0.0
1.326492 -0.009040 0.0
1.332353 -0.006871 0.0
1.337271 -0.006112 0.0
1.342200 -0.006592 0.0
1.347928 -0.007936 0.0
1.354921 -0.009556 0.0
1.363169 -0.010678 0.0
1.372070 -0.010478 0.0
1.380443 -0.008304 0.0
1.386696 -0.003894 0.0
1.389183 0.002581 0.0
1.386576 0.010577 0.0
1.378075 0.019354 0.0
1.363429 0.028182 0.0
1.342868 0.036439 0.0
1.316998 0.043659 0.0
1.286672 0.049540 0.0
1.252893 0.053907 0.0
1.216732 0.056686 0.0
1.179273 0.057862 0.0
1.141593 0.057450 0.0
1.104746 0.055477 0.0
1.069762 0.051966 0.0
1.037649 0.046930 0.0
1.009382 0.040366 0.0
0.985857 0.032258 0.0
0.967812 0.022598 0.0
0.955740 0.011458 0.0
0.950035 -0.000874 0.0
0.951374 -0.013877 0.0
0.960598 -0.027127 0.0
0.978217 -0.040065 0.0
1.004204 -0.052014 0.0
1.038007 -0.062241 0.0
1.078610 -0.069938 0.0
1.124504 -0.074166 0.0
1.173556 -0.073889 0.0
1.222888 -0.068212 0.0
1.268904 -0.056793 0.0
1.307604 -0.040300 0.0
1.335207 -0.020633 0.0
1.349136 -0.000449 0.0
1.349045 0.018227 0.0
1.336344 0.034520 0.0
1.313036 0.047875 0.0
1.281387 0.057957 0.0
1.243763 0.064644 0.0
1.202505 0.067979 0.0
1.159842 0.068106 0.0
1.117844 0.065225 0.0
1.078372 0.059567 0.0
1.042996 0.051433 0.0
1.012876 0.041278 0.0
0.988614 0.029785 0.0
0.970190 0.017835 0.0
0.957183 0.006404 0.0
0.949348 -0.003596 0.0
0.946579 -0.011816 0.0
0.948510 -0.018464 0.0
0.954630 -0.023869 0.0
0.964435 -0.028360 0.0
0.977536 -0.032221 0.0
0.993702 -0.035638 0.0
1.012828 -0.038629 0.0
1.034835 -0.040990 0.0
1.059514 -0.042288 0.0
1.086375 -0.041915 0.0
1.114527 -0.039219 0.0
1.142583 -0.033698 0.0
1.168601 -0.025235 0.0
1.190111 -0.014303 0.0
1.204585 -0.001947 0.0
1.210597 0.010460 0.0
1.208277 0.021965 0.0
1.198553 0.032020 0.0
1.182659 0.040103 0.0
1.162069 0.045739 0.0
1.138428 0.048543 0.0
1.113466 0.048288 0.0
1.088900 0.044985 0.0
1.066325 0.038956 0.0
1.047090 0.030839 0.0
1.032128 0.021477 0.0
1.021755 0.012548 0.0
1.001269 -0.005677 0.0
1.006258 -0.017112 0.0
1.016142 -0.028670 0.0
1.030950 -0.040250 0.0
1.050743 -0.051574 0.0
1.075479 -0.062111 0.0
1.104833 -0.071032 0.0
1.137982 -0.077251 0.0
1.173445 -0.079662 0.0
1.209049 -0.077473 0.0
1.242396 -0.071022 0.0
1.271613 -0.061547 0.0
1.295690 -0.050570 0.0
1.314413 -0.039470 0.0
1.328156 -0.029339 0.0
1.337686 -0.020960 0.0
1.344019 -0.014838 0.0
1.348314 -0.011229 0.0
1.351792 -0.010151 0.0
1.355656 -0.011346 0.0
1.360962 -0.014216 0.0
1.368440 -0.017746 0.0
1.378226 -0.020521 0.0
1.389627 -0.020939 0.0
1.401078 -0.017666 0.0
1.410436 -0.010144 0.0
1.415588 0.001192 0.0
1.414950 0.015210 0.0
1.407659 0.030513 0.0
1.393550 0.045778 0.0
1.373031 0.059922 0.0
1.346900 0.072178 0.0
1.316178 0.082069 0.0
1.281977 0.089356 0.0
1.245420 0.093956 0.0
1.207588 0.095882 0.0
1.169505 0.095192 0.0
1.132129 0.091958 0.0
1.096352 0.086246 0.0
1.062997 0.078118 0.0
1.032812 0.067631 0.0
1.006479 0.054851 0.0
0.984662 0.039868 0.0
0.968105 0.022817 0.0
0.957691 0.003886 0.0
0.954277 -0.016563 0.0
0.958399 -0.037787 0.0
0.970122 -0.058746 0.0
0.989189 -0.078386 0.0
1.015296 -0.095778 0.0
1.048213 -0.109922 0.0
1.087602 -0.119464 0.0
1.132617 -0.122658 0.0
1.181527 -0.117684 0.0
1.231472 -0.103282 0.0
1.278459 -0.079499 0.0
1.317720 -0.048298 0.0
1.344664 -0.013656 0.0
1.356752 0.019437 0.0
1.354509 0.048255 0.0
1.340105 0.071852 0.0
1.316017 0.089716 0.0
1.284801 0.101725 0.0
1.248920 0.108039 0.0
1.210621 0.109007 0.0
1.171862 0.105081 0.0
1.134245 0.096801 0.0
1.098980 0.084840 0.0
1.066880 0.070092 0.0
1.038430 0.053683 0.0
1.013934 0.036856 0.0
0.993618 0.020708 0.0
0.977607 0.005946 0.0
0.965939 -0.006920 0.0
0.958414 -0.017765 0.0
0.954570 -0.026844 0.0
0.953983 -0.034604 0.0
0.956455 -0.041551 0.0
0.962087 -0.048106 0.0
0.971229 -0.054428 0.0
0.984303 -0.060272 0.0
1.001587 -0.064968 0.0
1.023026 -0.067535 0.0
1.048144 -0.066868 0.0
1.076015 -0.061976 0.0
1.105273 -0.052233 0.0
1.134113 -0.037655 0.0
1.160257 -0.019214 0.0
1.181001 0.000972 0.0
1.194468 0.020307 0.0
1.200600 0.037270 0.0
1.200272 0.051074 0.0
1.194574 0.061056 0.0
1.184717 0.066723 0.0
1.171960 0.067826 0.0
1.157532 0.064441 0.0
1.142582 0.057026 0.0
1.128152 0.046435 0.0
1.115147 0.033848 0.0
1.105086 0.020611 0.0
1.001223 -0.008169 0.0
1.006109 -0.024495 0.0
1.015953 -0.041015 0.0
1.030993 -0.057753 0.0
1.051583 -0.074453 0.0
1.078047 -0.090433 0.0
1.110438 -0.104455 0.0
1.148139 -0.114678 0.0
1.189496 -0.119055 0.0
1.231311 -0.115499 0.0
1.269737 -0.104770 0.0
1.302130 -0.089409 0.0
1.327459 -0.072113 0.0
1.345854 -0.055044 0.0
1.358110 -0.039763 0.0
1.365376 -0.027332 0.0
1.368992 -0.018414 0.0
1.370401 -0.013356 0.0
1.371116 -0.012217 0.0
1.372685 -0.014713 0.0
1.376611 -0.020083 0.0
1.384128 -0.026874 0.0
1.395775 -0.032826 0.0
1.410885 -0.035146 0.0
1.427330 -0.031354 0.0
1.441872 -0.020357 0.0
1.451197 -0.003072 0.0
1.453048 0.018262 0.0
1.446498 0.041302 0.0
1.431637 0.063959 0.0
1.409269 0.084629 0.0
1.380609 0.102262 0.0
1.347031 0.116285 0.0
1.309902 0.126470 0.0
1.270494 0.132809 0.0
1.229950 0.135406 0.0
1.189287 0.134415 0.0
1.149403 0.129996 0.0
1.111092 0.122295 0.0
1.075070 0.111446 0.0
1.041993 0.097564 0.0
1.012506 0.080739 0.0
0.987282 0.061021 0.0
0.967033 0.038470 0.0
0.952366 0.013314 0.0
0.943559 -0.013770 0.0
0.940445 -0.041587 0.0
0.942627 -0.068851 0.0
0.949988 -0.094710 0.0
0.963132 -0.118704 0.0
0.983271 -0.140052 0.0
1.011571 -0.157022 0.0
1.048412 -0.166957 0.0
1.092980 -0.166863 0.0
1.143184 -0.154252 0.0
1.195696 -0.128029 0.0
1.246002 -0.089335 0.0
1.288599 -0.042161 0.0
1.317874 0.006579 0.0
1.331297 0.049933 0.0
1.330186 0.085688 0.0
1.317083 0.113072 0.0
1.294712 0.131956 0.0
1.265729 0.142671 0.0
1.232551 0.145851 0.0
1.197238 0.142310 0.0
1.161433 0.132993 0.0
1.126366 0.118980 0.0
1.092920 0.101499 0.0
1.061753 0.081892 0.0
1.033400 0.061496 0.0
1.008267 0.041516 0.0
0.986503 0.022913 0.0
0.967901 0.006384 0.0
0.952045 -0.007687 0.0
0.938523 -0.019555 0.0
0.927204 -0.029986 0.0
0.918449 -0.039885 0.0
0.913074 -0.050030 0.0
0.912137 -0.060710 0.0
0.916580 -0.071508 0.0
0.926922 -0.081357 0.0
0.943137 -0.088801 0.0
0.964725 -0.092308 0.0
0.990846 -0.090528 0.0
1.020420 -0.082515 0.0
1.052163 -0.067955 0.0
1.084513 -0.047407 0.0
1.115463 -0.022527 0.0
1.142208 0.003594 0.0
1.162549 0.027509 0.0
1.176288 0.047425 0.0
1.184154 0.062538 0.0
1.186966 0.072285 0.0
1.185582 0.076405 0.0
1.180870 0.075002 0.0
1.173705 0.068580 0.0
1.165003 0.058012 0.0
1.155774 0.044504 0.0
1.147757 0.028032 0.0
1.001159 -0.010551 0.0
1.005823 -0.031664 0.0
1.015358 -0.053226 0.0
1.030270 -0.075495 0.0
1.051345 -0.098375 0.0
1.079531 -0.121161 0.0
1.115640 -0.142227 0.0
1.159666 -0.158633 0.0
1.210207 -0.166997 0.0
1.261926 -0.161091 0.0
1.307646 -0.143325 0.0
1.343651 -0.119251 0.0
1.369473 -0.093422 0.0
1.386162 -0.068819 0.0
1.395261 -0.047344 0.0
1.398451 -0.030208 0.0
1.397438 -0.018142 0.0
1.393931 -0.011532 0.0
1.389696 -0.010520 0.0
1.386634 -0.014917 0.0
1.386824 -0.023996 0.0
1.392348 -0.036001 0.0
1.404665 -0.047662 0.0
1.423619 -0.054375 0.0
1.446706 -0.051657 0.0
1.469252 -0.037142 0.0
1.485781 -0.012141 0.0
1.492392 0.018870 0.0
1.487854 0.051782 0.0
1.472717 0.083477 0.0
1.448424 0.111772 0.0
1.416798 0.135404 0.0
1.379692 0.153826 0.0
1.338800 0.166951 0.0
1.295589 0.174947 0.0
1.251308 0.178092 0.0
1.207009 0.176691 0.0
1.163584 0.171029 0.0
1.121801 0.161354 0.0
1.082344 0.147867 0.0
1.045842 0.130722 0.0
1.012896 0.110015 0.0
0.984035 0.085829 0.0
0.959556 0.058391 0.0
0.939267 0.028349 0.0
0.922391 -0.003122 0.0
0.908009 -0.034739 0.0
0.895866 -0.065739 0.0
0.887093 -0.096410 0.0
0.884328 -0.127381 0.0
0.890687 -0.157874 0.0
0.908268 -0.185081 0.0
0.937436 -0.204907 0.0
0.977055 -0.213100 0.0
1.024999 -0.206163 0.0
1.078455 -0.182087 0.0
1.133926 -0.141053 0.0
1.187018 -0.086133 0.0
1.232195 -0.023900 0.0
1.263785 0.035400 0.0
1.279822 0.085295 0.0
1.282007 0.124382 0.0
1.272682 0.152342 0.0
1.254363 0.169586 0.0
1.229473 0.177004 0.0
1.200172 0.175771 0.0
1.168271 0.167238 0.0
1.135212 0.152861 0.0
1.102122 0.134154 0.0
1.069885 0.112640 0.0
1.039179 0.089808 0.0
1.010412 0.067105 0.0
0.983625 0.045875 0.0
0.958486 0.027162 0.0
0.934506 0.011371 0.0
0.911439 -0.002026 0.0
0.889718 -0.014476 0.0
0.870713 -0.027636 0.0
0.856330 -0.042520 0.0
0.848218 -0.059170 0.0
0.847294 -0.076568 0.0
0.853640 -0.092985 0.0
0.866727 -0.106475 0.0
0.885735 -0.115230 0.0
0.909776 -0.117767 0.0
0.937982 -0.113056 0.0
0.969475 -0.100651 0.0
1.003279 -0.080866 0.0
1.038184 -0.054924 0.0
1.072529 -0.025099 0.0
1.103572 0.004817 0.0
1.128913 0.031037 0.0
1.148162 0.051812 0.0
1.161828 0.066534 0.0
1.170455 0.074913 0.0
1.174640 0.077021 0.0
1.175062 0.073305 0.0
1.172522 0.064528 0.0
1.168001 0.051740 0.0
1.162984 0.033831 0.0
1.001027 -0.012737 0.0
1.005186 -0.038302 0.0
1.013830 -0.064766 0.0
1.027756 -0.092793 0.0
1.048301 -0.122696 0.0
1.077340 -0.154066 0.0
1.117076 -0.185167 0.0
1.169011 -0.211654 0.0
1.233827 -0.229333 0.0
1.300966 -0.217613 0.0
1.355203 -0.186761 0.0
1.392758 -0.149376 0.0
1.415860 -0.112221 0.0
1.427595 -0.078444 0.0
1.430562 -0.049784 0.0
1.426944 -0.027339 0.0
1.418670 -0.011724 0.0
1.407480 -0.003252 0.0
1.395114 -0.002197 0.0
1.383565 -0.008629 0.0
1.375381 -0.022290 0.0
1.373784 -0.041633 0.0
1.381940 -0.062503 0.0
1.401215 -0.077764 0.0
1.429727 -0.079866 0.0
1.462124 -0.063876 0.0
1.490367 -0.030180 0.0
1.506730 0.013934 0.0
1.508184 0.059801 0.0
1.495944 0.102834 0.0
1.472396 0.140257 0.0
1.440164 0.170778 0.0
1.401631 0.194091 0.0
1.358793 0.210417 0.0
1.313273 0.220211 0.0
1.266396 0.223986 0.0
1.219259 0.222233 0.0
1.172789 0.215383 0.0
1.127786 0.203786 0.0
1.084964 0.187714 0.0
1.044972 0.167369 0.0
1.008348 0.142938 0.0
0.975346 0.114770 0.0
0.945581 0.083692 0.0
0.917736 0.051181 0.0
0.889805 0.018853 0.0
0.860367 -0.012894 0.0
0.830740 -0.045814 0.0
0.805571 -0.082393 0.0
0.790583 -0.123645 0.0
0.789507 -0.166894 0.0
0.802806 -0.206941 0.0
0.828801 -0.238210 0.0
0.865222 -0.255837 0.0
0.909890 -0.256038 0.0
0.960694 -0.236472 0.0
1.015326 -0.196770 0.0
1.070969 -0.139152 0.0
1.123919 -0.069008 0.0
1.168642 0.004195 0.0
1.200288 0.068817 0.0
1.217964 0.120999 0.0
1.223096 0.159919 0.0
1.217578 0.185845 0.0
1.203464 0.199750 0.0
1.182748 0.203041 0.0
1.157242 0.197375 0.0
1.128506 0.184518 0.0
1.097839 0.166254 0.0
1.066269 0.144347 0.0
1.034497 0.120579 0.0
1.002803 0.096795 0.0
0.971023 0.074751 0.0
0.938806 0.055642 0.0
0.906183 0.039495 0.0
0.874146 0.024955 0.0
0.844642 0.009769 0.0
0.819904 -0.008139 0.0
0.801868 -0.029599 0.0
0.791703 -0.053813 0.0
0.789495 -0.078793 0.0
0.794552 -0.102164 0.0
0.805915 -0.121746 0.0
0.822691 -0.135742 0.0
0.844162 -0.142767 0.0
0.869758 -0.141859 0.0
0.898976 -0.132559 0.0
0.931262 -0.115048 0.0
0.965896 -0.090282 0.0
1.001878 -0.060068 0.0
1.037743 -0.027121 0.0
1.070872 0.004505 0.0
1.098818 0.031149 0.0
1.121032 0.051318 0.0
1.137840 0.064694 0.0
1.149617 0.071278 0.0
1.156843 0.071400 0.0
1.160161 0.065654 0.0
1.160397 0.054900 0.0
1.158635 0.037450 0.0
1.000786 -0.014549 0.0
1.003991 -0.043853 0.0
1.010795 -0.074662 0.0
1.022222 -0.108251 0.0
1.040152 -0.145712 0.0
1.067615 -0.187552 0.0
1.109032 -0.232833 0.0
1.169169 -0.276061 0.0
1.256320 -0.316892 0.0
1.345487 -0.286360 0.0
1.403310 -0.230074 0.0
1.433486 -0.173794 0.0
1.446114 -0.123532 0.0
1.447317 -0.080072 0.0
1.440235 -0.044042 0.0
1.426949 -0.016177 0.0
1.408765 0.003572 0.0
1.386885 0.014521 0.0
1.363015 0.016266 0.0
1.338869 0.008604 0.0
1.316210 -0.008680 0.0
1.298648 -0.036086 0.0
1.292118 -0.069675 0.0
1.301172 -0.098920 0.0
1.326460 -0.112510 0.0
1.364650 -0.101820 0.0
1.407712 -0.063540 0.0
1.442798 -0.004155 0.0
1.460292 0.058942 0.0
1.459932 0.116294 0.0
1.445507 0.164770 0.0
1.420533 0.203471 0.0
1.387811 0.232653 0.0
1.349478 0.253026 0.0
1.307202 0.265399 0.0
1.262341 0.270535 0.0
1.216057 0.269104 0.0
1.169376 0.261664 0.0
1.123219 0.248665 0.0
1.078424 0.230452 0.0
1.035724 0.207324 0.0
0.995595 0.179735 0.0
0.957849 0.148721 0.0
0.921037 0.116318 0.0
0.882354 0.085084 0.0
0.839256 0.055979 0.0
0.792699 0.025974 0.0
0.748799 -0.011155 0.0
0.716526 -0.059610 0.0
0.701770 -0.116684 0.0
0.704060 -0.175070 0.0
0.719612 -0.227615 0.0
0.744933 -0.268852 0.0
0.777897 -0.294579 0.0
0.817339 -0.301405 0.0
0.862369 -0.286939 0.0
0.911868 -0.250434 0.0
0.964225 -0.193487 0.0
1.017131 -0.120529 0.0
1.067190 -0.039065 0.0
1.108978 0.038643 0.0
1.138781 0.103693 0.0
1.156589 0.154285 0.0
1.163337 0.190249 0.0
1.160398 0.212400 0.0
1.149322 0.222181 0.0
1.131671 0.221393 0.0
1.108903 0.212006 0.0
1.082288 0.196049 0.0
1.052810 0.175600 0.0
1.021037 0.152869 0.0
0.987072 0.130165 0.0
0.950763 0.109470 0.0
0.912302 0.091601 0.0
0.872925 0.075536 0.0
0.835148 0.058729 0.0
0.802157 0.038490 0.0
0.776621 0.013415 0.0
0.759628 -0.016124 0.0
0.750818 -0.048313 0.0
0.749233 -0.080499 0.0
0.753805 -0.110087 0.0
0.763609 -0.134990 0.0
0.777957 -0.153621 0.0
0.796388 -0.164789 0.0
0.818611 -0.167656 0.0
0.844415 -0.161783 0.0
0.873556 -0.147252 0.0
0.905649 -0.124805 0.0
0.940060 -0.095938 0.0
0.975834 -0.062889 0.0
1.011567 -0.028588 0.0
1.044815 0.003048 0.0
1.073237 0.028782 0.0
1.096206 0.047451 0.0
1.113951 0.059000 0.0
1.126775 0.063629 0.0
1.135122 0.061760 0.0
1.139607 0.054073 0.0
1.140906 0.038741 0.0
1.000408 -0.015743 0.0
1.002082 -0.047538 0.0
1.005784 -0.081483 0.0
1.012534 -0.119608 0.0
1.024437 -0.164186 0.0
1.045466 -0.217570 0.0
1.082777 -0.281543 0.0
1.147179 -0.351891 0.0
1.266766 -0.447800 0.0
1.378781 -0.356634 0.0
1.417173 -0.256014 0.0
1.419117 -0.179974 0.0
1.409151 -0.120013 0.0
1.394020 -0.069663 0.0
1.374711 -0.028061 0.0
1.350036 0.005803 0.0
1.319276 0.030536 0.0
1.283709 0.045004 0.0
1.244705 0.048656 0.0
1.203991 0.041075 0.0
1.163459 0.022040 0.0
1.123650 -0.009435 0.0
1.089171 -0.055317 0.0
1.071106 -0.104268 0.0
1.078302 -0.139647 0.0
1.112336 -0.146908 0.0
1.167507 -0.116684 0.0
1.230917 -0.049508 0.0
1.282512 0.035206 0.0
1.312011 0.110890 0.0
1.323436 0.173173 0.0
1.321160 0.222317 0.0
1.308134 0.259555 0.0
1.286421 0.286171 0.0
1.257663 0.303288 0.0
1.223321 0.311849 0.0
1.184755 0.312639 0.0
1.143249 0.306316 0.0
1.100003 0.293416 0.0
1.056118 0.274381 0.0
1.012481 0.249733 0.0
0.969272 0.220664 0.0
0.924938 0.189871 0.0
0.875748 0.161170 0.0
0.818392 0.136270 0.0
0.755470 0.110813 0.0
0.697610 0.075558 0.0
0.657111 0.023660 0.0
0.638747 -0.043787 0.0
0.638599 -0.117603 0.0
0.650180 -0.188021 0.0
0.668824 -0.248859 0.0
0.692276 -0.296382 0.0
0.719924 -0.327661 0.0
0.752004 -0.339844 0.0
0.788894 -0.330419 0.0
0.830563 -0.298123 0.0
0.876311 -0.243902 0.0
0.924722 -0.171432 0.0
0.973636 -0.087136 0.0
1.019228 -0.000666 0.0
1.056811 0.075616 0.0
1.084027 0.137339 0.0
1.100833 0.183641 0.0
1.107818 0.214963 0.0
1.105935 0.232577 0.0
1.096320 0.238263 0.0
1.080138 0.234085 0.0
1.058441 0.222281 0.0
1.032012 0.205276 0.0
1.001262 0.185717 0.0
0.966339 0.166205 0.0
0.927598 0.148480 0.0
0.886273 0.132378 0.0
0.844849 0.115559 0.0
0.806645 0.094686 0.0
0.774740 0.067429 0.0
0.750977 0.033775 0.0
0.735683 -0.004197 0.0
0.727996 -0.043744 0.0
0.726627 -0.082114 0.0
0.730462 -0.116879 0.0
0.738654 -0.146196 0.0
0.750618 -0.168728 0.0
0.766007 -0.183502 0.0
0.784672 -0.189832 0.0
0.806594 -0.187333 0.0
0.831769 -0.176017 0.0
0.860077 -0.156440 0.0
0.891174 -0.129811 0.0
0.924407 -0.098024 0.0
0.958785 -0.063564 0.0
0.992923 -0.029361 0.0
1.024622 0.001071 0.0
1.051784 0.025031 0.0
1.073782 0.041676 0.0
1.090790 0.051121 0.0
1.103063 0.053646 0.0
1.110991 0.049775 0.0
1.114891 0.037840 0.0
0.999894 -0.016045 0.0
0.999465 -0.048481 0.0
0.998746 -0.083524 0.0
0.998327 -0.123899 0.0
0.999733 -0.173204 0.0
1.006588 -0.236437 0.0
1.027347 -0.320747 0.0
1.080462 -0.430203 0.0
1.231121 -0.639733 0.0
1.339947 -0.385542 0.0
1.303946 -0.229498 0.0
1.247415 -0.151903 0.0
1.205703 -0.096406 0.0
1.175008 -0.047444 0.0
1.145044 -0.001005 0.0
1.108671 0.039794 0.0
1.065154 0.070822 0.0
1.014542 0.090897 0.0
0.956290 0.100017 0.0
0.889611 0.097108 0.0
0.816530 0.079620 0.0
0.745060 0.044264 0.0
0.685391 -0.014868 0.0
0.653393 -0.094654 0.0
0.663411 -0.166473 0.0
0.712284 -0.202989 0.0
0.787841 -0.191329 0.0
0.879595 -0.130027 0.0
0.974687 -0.030961 0.0
1.052573 0.069673 0.0
1.105464 0.150075 0.0
1.139808 0.213347 0.0
1.158975 0.262384 0.0
1.164951 0.299080 0.0
1.159360 0.324727 0.0
1.143807 0.340306 0.0
1.119915 0.346639 0.0
1.089282 0.344455 0.0
1.053399 0.334406 0.0
1.013491 0.317185 0.0
0.970033 0.294024 0.0
0.921860 0.267754 0.0
0.865988 0.242987 0.0
0.800463 0.222769 0.0
0.729695 0.202796 0.0
0.665824 0.171080 0.0
0.621632 0.117342 0.0
0.601737 0.042270 0.0
0.601500 -0.043796 0.0
0.612826 -0.128773 0.0
0.629566 -0.205173 0.0
0.648605 -0.269391 0.0
0.668779 -0.319476 0.0
0.690222 -0.353659 0.0
0.713966 -0.369671 0.0
0.741401 -0.364917 0.0
0.773588 -0.337483 0.0
0.810753 -0.287454 0.0
0.852181 -0.217719 0.0
0.896347 -0.133929 0.0
0.940848 -0.043966 0.0
0.981366 0.040814 0.0
1.014153 0.112138 0.0
1.038030 0.168158 0.0
1.052756 0.208737 0.0
1.058631 0.234811 0.0
1.056275 0.248000 0.0
1.046442 0.250363 0.0
1.029848 0.244295 0.0
1.007021 0.232517 0.0
0.978306 0.217941 0.0
0.944145 0.203065 0.0
0.905628 0.188878 0.0
0.864954 0.173979 0.0
0.825297 0.155039 0.0
0.789952 0.128754 0.0
0.761296 0.093923 0.0
0.740286 0.052053 0.0
0.726733 0.006372 0.0
0.719800 -0.039694 0.0
0.718432 -0.083427 0.0
0.721645 -0.122612 0.0
0.728619 -0.155629 0.0
0.738726 -0.181366 0.0
0.751565 -0.199090 0.0
0.766986 -0.208330 0.0
0.785059 -0.208830 0.0
0.805961 -0.200598 0.0
0.829830 -0.184037 0.0
0.856603 -0.160084 0.0
0.885913 -0.130295 0.0
0.917045 -0.096803 0.0
0.948950 -0.062165 0.0
0.980271 -0.029146 0.0
1.009097 -0.000741 0.0
1.033654 0.020893 0.0
1.053365 0.035185 0.0
1.068342 0.042331 0.0
1.078767 0.042737 0.0
1.084671 0.035074 0.0
0.999301 -0.015240 0.0
0.996417 -0.045973 0.0
0.990408 -0.079305 0.0
0.980939 -0.118229 0.0
0.967769 -0.167109 0.0
0.951433 -0.233051 0.0
0.935554 -0.329013 0.0
0.935437 -0.474935 0.0
1.038262 -0.848486 0.0
1.048495 -0.190745 0.0
0.874675 -0.098774 0.0
0.746062 -0.086887 0.0
0.687039 -0.060688 0.0
0.653551 -0.018980 0.0
0.616895 0.037152 0.0
0.566211 0.088693 0.0
0.501528 0.130125 0.0
0.424983 0.158751 0.0
0.340372 0.175026 0.0
0.255225 0.173925 0.0
0.184077 0.147032 0.0
0.144704 0.087695 0.0
0.149755 -0.003681 0.0
0.193363 -0.117452 0.0
0.259485 -0.219815 0.0
0.339968 -0.279003 0.0
0.431811 -0.282714 0.0
0.534422 -0.233007 0.0
0.647520 -0.136171 0.0
0.760541 -0.016025 0.0
0.854318 0.089105 0.0
0.923885 0.170406 0.0
0.975067 0.234975 0.0
1.009841 0.285739 0.0
1.029478 0.324022 0.0
1.035366 0.350676 0.0
1.029074 0.366454 0.0
1.012215 0.372131 0.0
0.986251 0.368577 0.0
0.952075 0.357099 0.0
0.909344 0.340299 0.0
0.856347 0.322650 0.0
0.792261 0.308049 0.0
0.721761 0.293732 0.0
0.656782 0.267581 0.0
0.610499 0.216450 0.0
0.588445 0.138219 0.0
0.586792 0.042942 0.0
0.597836 -0.055277 0.0
0.615007 -0.145787 0.0
0.634154 -0.224045 0.0
0.652925 -0.288329 0.0
0.670223 -0.338010 0.0
0.686130 -0.372475 0.0
0.701888 -0.390357 0.0
0.719572 -0.389349 0.0
0.741333 -0.366999 0.0
0.768525 -0.322296 0.0
0.801243 -0.257024 0.0
0.838445 -0.175992 0.0
0.878301 -0.086261 0.0
0.917705 0.003187 0.0
0.952685 0.081998 0.0
0.980649 0.146456 0.0
1.000659 0.195703 0.0
1.012410 0.230218 0.0
1.016001 0.251358 0.0
1.011735 0.261103 0.0
0.999958 0.261927 0.0
0.980974 0.256696 0.0
0.955170 0.248281 0.0
0.923391 0.238666 0.0
0.887390 0.227795 0.0
0.849943 0.213183 0.0
0.814309 0.191126 0.0
0.783282 0.159039 0.0
0.758474 0.117102 0.0
0.740301 0.068056 0.0
0.728446 0.015777 0.0
0.722316 -0.036036 0.0
0.721189 -0.084590 0.0
0.724257 -0.127730 0.0
0.730699 -0.163928 0.0
0.739764 -0.192239 0.0
0.750882 -0.212174 0.0
0.763765 -0.223550 0.0
0.778438 -0.226355 0.0
0.795176 -0.220713 0.0
0.814342 -0.206957 0.0
0.836186 -0.185781 0.0
0.860669 -0.158392 0.0
0.887381 -0.126550 0.0
0.915540 -0.092482 0.0
0.944062 -0.058672 0.0
0.971643 -0.027623 0.0
0.996656 -0.001795 0.0
1.017654 0.017164 0.0
1.034119 0.028911 0.0
1.046074 0.033777 0.0
1.053332 0.030873 0.0
0.998734 -0.013275 0.0
0.993504 -0.039825 0.0
0.982384 -0.068325 0.0
0.963924 -0.101279 0.0
0.935443 -0.142409 0.0
0.892019 -0.197992 0.0
0.823918 -0.280092 0.0
0.713204 -0.413025 0.0
0.322171 -0.727292 0.0
-0.480893 0.253652 0.0
-0.480893 0.000000 0.0
-0.033062 -0.023226 0.0
-0.057792 -0.050430 0.0
-0.014545 -0.038997 0.0
0.056681 0.022599 0.0
0.095340 0.115270 0.0
0.079339 0.184232 0.0
0.032137 0.228391 0.0
-0.026268 0.248403 0.0
-0.078380 0.237807 0.0
-0.111414 0.187331 0.0
-0.118448 0.093803 0.0
-0.098134 -0.035154 0.0
-0.055299 -0.172422 0.0
0.003355 -0.289621 0.0
0.075614 -0.361938 0.0
0.160340 -0.376349 0.0
0.257706 -0.339350 0.0
0.368848 -0.254069 0.0
0.491670 -0.133970 0.0
0.612594 -0.007653 0.0
0.713075 0.097117 0.0
0.790196 0.179961 0.0
0.848713 0.247461 0.0
0.890030 0.301346 0.0
0.915223 0.342270 0.0
0.925535 0.370841 0.0
0.922257 0.387880 0.0
0.906400 0.394649 0.0
0.878199 0.393403 0.0
0.836961 0.387964 0.0
0.782577 0.382368 0.0
0.719176 0.375817 0.0
0.657495 0.358146 0.0
0.610886 0.314754 0.0
0.586936 0.239508 0.0
0.583921 0.140229 0.0
0.595144 0.031363 0.0
0.613930 -0.073529 0.0
0.635514 -0.166290 0.0
0.656891 -0.244065 0.0
0.676014 -0.306202 0.0
0.691645 -0.353066 0.0
0.703535 -0.385215 0.0
0.712683 -0.402523 0.0
0.721359 -0.403543 0.0
0.732550 -0.385757 0.0
0.748881 -0.347061 0.0
0.771618 -0.287714 0.0
0.800403 -0.211288 0.0
0.833664 -0.124081 0.0
0.869054 -0.033786 0.0
0.903015 0.050030 0.0
0.932265 0.121211 0.0
0.955161 0.178044 0.0
0.970826 0.220461 0.0
0.978857 0.249492 0.0
0.979124 0.266968 0.0
0.971631 0.275332 0.0
0.956528 0.277377 0.0
0.934319 0.275612 0.0
0.906225 0.271208 0.0
0.874422 0.263056 0.0
0.841822 0.247970 0.0
0.811333 0.222460 0.0
0.785073 0.184992 0.0
0.764067 0.136964 0.0
0.748522 0.081913 0.0
0.738282 0.024015 0.0
0.733078 -0.032940 0.0
0.732493 -0.085975 0.0
0.735882 -0.132802 0.0
0.742419 -0.171835 0.0
0.751220 -0.202197 0.0
0.761500 -0.223614 0.0
0.772732 -0.236226 0.0
0.784763 -0.240382 0.0
0.797820 -0.236481 0.0
0.812400 -0.224936 0.0
0.829048 -0.206293 0.0
0.848110 -0.181424 0.0
0.869557 -0.151676 0.0
0.892931 -0.118888 0.0
0.917397 -0.085254 0.0
0.941861 -0.053087 0.0
0.965091 -0.024573 0.0
0.985700 -0.001663 0.0
1.002521 0.014451 0.0
1.015088 0.023714 0.0
1.023061 0.025705 0.0
0.998319 -0.010328 0.0
0.991390 -0.030613 0.0
0.976630 -0.051657 0.0
0.951931 -0.074788 0.0
0.913231 -0.101719 0.0
0.852656 -0.134683 0.0
0.753632 -0.176275 0.0
0.576733 -0.229229 0.0
0.230899 -0.274043 0.0
0.000000 0.253652 0.0
-0.000000 -0.000000 0.0
0.000000 0.000000 0.0
-0.028042 -0.029381 0.0
-0.069539 -0.060458 0.0
-0.089835 -0.006871 0.0
-0.101394 0.117640 0.0
-0.119997 0.216467 0.0
-0.153178 0.276539 0.0
-0.191518 0.296999 0.0
-0.223479 0.273285 0.0
-0.238702 0.200110 0.0
-0.230354 0.079710 0.0
-0.199365 -0.072364 0.0
-0.156043 -0.221369 0.0
-0.109516 -0.345856 0.0
-0.058538 -0.428939 0.0
0.004325 -0.456937 0.0
0.083317 -0.435119 0.0
0.179433 -0.365558 0.0
0.291460 -0.257329 0.0
0.413481 -0.127239 0.0
0.530302 -0.000599 0.0
0.626686 0.104172 0.0
0.701583 0.189836 0.0
0.758458 0.260780 0.0
0.798296 0.317805 0.0
0.821868 0.361422 0.0
0.829861 0.392584 0.0
0.822589 0.413075 0.0
0.799873 0.425894 0.0
0.761976 0.434607 0.0
0.712235 0.439850 0.0
0.659557 0.434414 0.0
0.616553 0.404235 0.0
0.592613 0.339214 0.0
0.588827 0.242785 0.0
0.600181 0.128612 0.0
0.620682 0.011256 0.0
0.645379 -0.096905 0.0
0.670629 -0.189748 0.0
0.694001 -0.265356 0.0
0.713682 -0.323716 0.0
0.728412 -0.365913 0.0
0.737649 -0.393495 0.0
0.741917 -0.407659 0.0
0.743143 -0.408308 0.0
0.744556 -0.393597 0.0
0.749811 -0.360806 0.0
0.761594 -0.308489 0.0
0.780683 -0.238387 0.0
0.806034 -0.155594 0.0
0.835518 -0.067148 0.0
0.866081 0.018868 0.0
0.894401 0.094803 0.0
0.918140 0.157816 0.0
0.935943 0.207221 0.0
0.946972 0.243671 0.0
0.950720 0.268776 0.0
0.946926 0.284811 0.0
0.935666 0.294262 0.0
0.917584 0.299018 0.0
0.894160 0.299322 0.0
0.867698 0.293207 0.0
0.840873 0.277244 0.0
0.816004 0.248544 0.0
0.794553 0.206619 0.0
0.777174 0.153723 0.0
0.764102 0.093772 0.0
0.755462 0.031036 0.0
0.751308 -0.030602 0.0
0.751462 -0.087882 0.0
0.755404 -0.138227 0.0
0.762331 -0.179874 0.0
0.771283 -0.211912 0.0
0.781307 -0.234202 0.0
0.791627 -0.247190 0.0
0.801817 -0.251639 0.0
0.811906 -0.248370 0.0
0.822357 -0.238078 0.0
0.833899 -0.221341 0.0
0.847248 -0.198786 0.0
0.862825 -0.171338 0.0
0.880598 -0.140372 0.0
0.900059 -0.107697 0.0
0.920335 -0.075385 0.0
0.940338 -0.045509 0.0
0.958906 -0.019904 0.0
0.974835 -0.000057 0.0
0.987178 0.013312 0.0
0.995274 0.020038 0.0
0.998137 -0.006784 0.0
0.990501 -0.019591 0.0
0.974368 -0.031786 0.0
0.947752 -0.043344 0.0
0.907107 -0.053817 0.0
0.846590 -0.061493 0.0
0.757300 -0.061151 0.0
0.628125 -0.038279 0.0
0.465200 0.049049 0.0
0.189145 0.170198 0.0
0.000000 0.000000 0.0
-0.000000 -0.000000 0.0
0.000000 0.000000 0.0
-0.022641 -0.023501 0.0
-0.066455 0.021142 0.0
-0.109264 0.143994 0.0
-0.147658 0.247110 0.0
-0.179013 0.310432 0.0
-0.205348 0.327781 0.0
-0.222100 0.291216 0.0
-0.220633 0.195933 0.0
-0.193241 0.048147 0.0
-0.147922 -0.117108 0.0
-0.102355 -0.265513 0.0
-0.065189 -0.385406 0.0
-0.036652 -0.468903 0.0
-0.008057 -0.508429 0.0
0.032694 -0.503370 0.0
0.093616 -0.454346 0.0
0.177342 -0.364294 0.0
0.279470 -0.244423 0.0
0.390278 -0.111043 0.0
0.493947 0.014563 0.0
0.578823 0.119670 0.0
0.644968 0.207926 0.0
0.694173 0.281616 0.0
0.726794 0.341418 0.0
0.742877 0.388513 0.0
0.742289 0.425006 0.0
0.725346 0.453621 0.0
0.694562 0.475560 0.0
0.656783 0.486416 0.0
0.622852 0.474456 0.0
0.602797 0.427253 0.0
0.600313 0.342619 0.0
0.612651 0.230828 0.0
0.634902 0.106964 0.0
0.662679 -0.015374 0.0
0.692055 -0.124349 0.0
0.719959 -0.215458 0.0
0.744384 -0.287442 0.0
0.763850 -0.340778 0.0
0.777331 -0.377061 0.0
0.784277 -0.398531 0.0
0.784845 -0.407459 0.0
0.780324 -0.405212 0.0
0.773504 -0.391286 0.0
0.768368 -0.363235 0.0
0.768832 -0.318308 0.0
0.777190 -0.256016 0.0
0.793423 -0.179548 0.0
0.815724 -0.094979 0.0
0.841351 -0.009492 0.0
0.867051 0.069143 0.0
0.890035 0.136753 0.0
0.908534 0.191983 0.0
0.921352 0.235061 0.0
0.927690 0.267300 0.0
0.927120 0.290651 0.0