# vtk DataFile Version 3.0
Vector Field
ASCII
DATASET RECTILINEAR_GRID
DIMENSIONS 100 26 1
X_COORDINATES 100 double
0.050000 0.150000 0.250000 0.350000 0.450000 0.550000 0.650000 0.750000 0.850000 0.950000 1.050000 1.150000 1.250000 1.350000 1.450000 1.550000 1.650000 1.750000 1.850000 1.950000 2.050000 2.150000 2.250000 2.350000 2.450000 2.550000 2.650000 2.750000 2.850000 2.950000 3.050000 3.150000 3.250000 3.350000 3.450000 3.550000 3.650000 3.750000 3.850000 3.950000 4.050000 4.150000 4.250000 4.350000 4.450000 4.550000 4.650000 4.750000 4.850000 4.950000 5.050000 5.150000 5.250000 5.350000 5.450000 5.550000 5.650000 5.750000 5.850000 5.950000 6.050000 6.150000 6.250000 6.350000 6.450000 6.550000 6.650000 6.750000 6.850000 6.950000 7.050000 7.150000 7.250000 7.350000 7.450000 7.550000 7.650000 7.750000 7.850000 7.950000 8.050000 8.150000 8.250000 8.350000 8.450000 8.550000 8.650000 8.750000 8.850000 8.950000 9.050000 9.150000 9.250000 9.350000 9.450000 9.550000 9.650000 9.750000 9.850000 9.950000 
Y_COORDINATES 26 double
0.050000 0.150000 0.250000 0.350000 0.450000 0.550000 0.650000 0.750000 0.850000 0.950000 1.050000 1.150000 1.250000 1.350000 1.450000 1.550000 1.650000 1.750000 1.850000 1.950000 2.050000 2.150000 2.250000 2.350000 2.450000 2.550000 
Z_COORDINATES 1 double
0.0
POINT_DATA 2600
VECTORS Vektorfeld double
0.997645 0.002355 0.0
0.992760 0.002531 0.0
0.989062 0.001167 0.0
0.988738 -0.000843 0.0
0.992696 -0.003114 0.0
1.001199 -0.005389 0.0
1.014018 -0.007430 0.0
1.030444 -0.008995 0.0
1.049313 -0.009874 0.0
1.069133 -0.009946 0.0
1.088322 -0.009243 0.0
1.105497 -0.007933 0.0
1.119676 -0.006246 0.0
1.130334 -0.004411 0.0
1.137353 -0.002608 0.0
1.140917 -0.000956 0.0
1.141425 0.000447 0.0
1.139316 0.001662 0.0
1.134850 0.002804 0.0
1.128024 0.004021 0.0
1.118547 0.005456 0.0
1.105863 0.007228 0.0
1.089245 0.009390 0.0
1.067938 0.011917 0.0
1.041316 0.014704 0.0
1.009022 0.017591 0.0
0.971044 0.020386 0.0
0.927757 0.022901 0.0
0.879897 0.024960 0.0
0.828522 0.026415 0.0
0.774958 0.027149 0.0
0.720734 0.027074 0.0
0.667526 0.026134 0.0
0.617083 0.024308 0.0
0.571153 0.021622 0.0
0.531386 0.018144 0.0
0.499330 0.013912 0.0
0.476691 0.008727 0.0
0.465610 0.002355 0.0
0.466740 -0.003485 0.0
0.477445 -0.007220 0.0
0.493751 -0.009087 0.0
0.512444 -0.009606 0.0
0.531219 -0.009169 0.0
0.548392 -0.008004 0.0
0.562673 -0.006277 0.0
0.573145 -0.004195 0.0
0.579358 -0.002017 0.0
0.581053 0.000322 0.0
0.577177 0.003554 0.0
0.566193 0.007431 0.0
0.547213 0.011548 0.0
0.520209 0.015457 0.0
0.486163 0.018588 0.0
0.447439 0.020136 0.0
0.408071 0.019231 0.0
0.373208 0.015632 0.0
0.347226 0.010351 0.0
0.331640 0.005236 0.0
0.324738 0.001665 0.0
0.323276 -0.000203 0.0
0.324547 -0.001068 0.0
0.327323 -0.001708 0.0
0.331356 -0.002324 0.0
0.336335 -0.002655 0.0
0.341667 -0.002678 0.0
0.346820 -0.002476 0.0
0.351401 -0.002105 0.0
0.355116 -0.001610 0.0
0.357749 -0.001023 0.0
0.359122 -0.000350 0.0
0.358898 0.000573 0.0
0.356582 0.001742 0.0
0.352000 0.002840 0.0
0.345562 0.003597 0.0
0.338107 0.003858 0.0
0.330685 0.003564 0.0
0.324345 0.002775 0.0
0.319904 0.001666 0.0
0.317804 0.000435 0.0
0.317872 -0.000503 0.0
0.319210 -0.000835 0.0
0.320775 -0.000731 0.0
0.321883 -0.000377 0.0
0.322118 0.000141 0.0
0.321252 0.000726 0.0
0.319357 0.001170 0.0
0.316834 0.001353 0.0
0.314211 0.001270 0.0
0.311939 0.001002 0.0
0.310321 0.000616 0.0
0.309611 0.000095 0.0
0.309941 -0.000425 0.0
0.311108 -0.000743 0.0
0.312719 -0.000868 0.0
0.314432 -0.000845 0.0
0.315950 -0.000673 0.0
0.316958 -0.000334 0.0
0.317206 0.000086 0.0
0.316637 0.000484 0.0
1.002938 0.001772 0.0
1.011340 -0.000403 0.0
1.024246 -0.005109 0.0
1.041061 -0.011059 0.0
1.061744 -0.017539 0.0
1.086233 -0.023956 0.0
1.114228 -0.029677 0.0
1.145069 -0.034015 0.0
1.177682 -0.036337 0.0
1.210643 -0.036262 0.0
1.242426 -0.033899 0.0
1.271760 -0.029787 0.0
1.297839 -0.024649 0.0
1.320342 -0.019169 0.0
1.339344 -0.013871 0.0
1.355169 -0.009080 0.0
1.368169 -0.004937 0.0
1.378640 -0.001315 0.0
1.386795 0.002092 0.0
1.392645 0.005709 0.0
1.395874 0.010017 0.0
1.395824 0.015401 0.0
1.391626 0.022033 0.0
1.382380 0.029828 0.0
1.367341 0.038453 0.0
1.346074 0.047403 0.0
1.318534 0.056091 0.0
1.285084 0.063934 0.0
1.246465 0.070407 0.0
1.203738 0.075069 0.0
1.158229 0.077569 0.0
1.111464 0.077643 0.0
1.065115 0.075124 0.0
1.020929 0.069947 0.0
0.980668 0.062175 0.0
0.946028 0.051997 0.0
0.918502 0.039641 0.0
0.898851 0.025287 0.0
0.886161 0.009566 0.0
0.879223 -0.004888 0.0
0.878209 -0.015507 0.0
0.883537 -0.022433 0.0
0.895037 -0.026453 0.0
0.912118 -0.028178 0.0
0.933808 -0.027859 0.0
0.958600 -0.025496 0.0
0.984182 -0.021030 0.0
1.007254 -0.014467 0.0
1.024127 -0.005797 0.0
1.032657 0.005018 0.0
1.032179 0.017429 0.0
1.022411 0.030297 0.0
1.003835 0.042289 0.0
0.977769 0.051867 0.0
0.946103 0.057249 0.0
0.910693 0.056896 0.0
0.872819 0.050703 0.0
0.833298 0.040783 0.0
0.793321 0.030367 0.0
0.755278 0.021479 0.0
0.722813 0.013910 0.0
0.699816 0.006546 0.0
0.688341 -0.000623 0.0
0.686971 -0.006073 0.0
0.692337 -0.009252 0.0
0.701850 -0.010926 0.0
0.714049 -0.011580 0.0
0.727811 -0.011344 0.0
0.742002 -0.010276 0.0
0.755398 -0.008386 0.0
0.766759 -0.005721 0.0
0.775333 -0.002406 0.0
0.781292 0.001079 0.0
0.785230 0.004149 0.0
0.787619 0.006338 0.0
0.788889 0.007302 0.0
0.789470 0.006962 0.0
0.789626 0.005562 0.0
0.789335 0.003611 0.0
0.788204 0.001720 0.0
0.785748 0.000601 0.0
0.781848 0.000623 0.0
0.776514 0.001580 0.0
0.769605 0.003114 0.0
0.761176 0.004844 0.0
0.751741 0.006323 0.0
0.742105 0.007104 0.0
0.733101 0.006947 0.0
0.725509 0.005891 0.0
0.719969 0.004193 0.0
0.716888 0.002124 0.0
0.716249 -0.000063 0.0
0.717443 -0.001791 0.0
0.719721 -0.002822 0.0
0.722642 -0.003320 0.0
0.725993 -0.003456 0.0
0.729620 -0.003207 0.0
0.733159 -0.002347 0.0
0.735825 -0.000817 0.0
0.736586 0.001196 0.0
1.001846 -0.003012 0.0
1.008413 -0.010587 0.0
1.020313 -0.019731 0.0
1.037033 -0.029971 0.0
1.058476 -0.040753 0.0
1.084612 -0.051367 0.0
1.115212 -0.060862 0.0
1.149606 -0.068065 0.0
1.186503 -0.071798 0.0
1.223949 -0.071208 0.0
1.259764 -0.066552 0.0
1.292259 -0.058963 0.0
1.320548 -0.049839 0.0
1.344470 -0.040404 0.0
1.364368 -0.031538 0.0
1.380875 -0.023746 0.0
1.394754 -0.017151 0.0
1.406743 -0.011561 0.0
1.417392 -0.006467 0.0
1.426918 -0.001107 0.0
1.435135 0.005388 0.0
1.441429 0.013786 0.0
1.444830 0.024444 0.0
1.444267 0.037226 0.0
1.438815 0.051545 0.0
1.427883 0.066511 0.0
1.411286 0.081121 0.0
1.389237 0.094402 0.0
1.362288 0.105507 0.0
1.331246 0.113737 0.0
1.297111 0.118545 0.0
1.261015 0.119528 0.0
1.224172 0.116431 0.0
1.187832 0.109166 0.0
1.153204 0.097846 0.0
1.121360 0.082811 0.0
1.093057 0.064657 0.0
1.068553 0.044426 0.0
1.047739 0.023930 0.0
1.030522 0.004904 0.0
1.017700 -0.011464 0.0
1.010652 -0.024757 0.0
1.010339 -0.035317 0.0
1.017287 -0.043342 0.0
1.031480 -0.048577 0.0
1.052266 -0.050354 0.0
1.078326 -0.047814 0.0
1.107719 -0.040149 0.0
1.137811 -0.027080 0.0
1.165142 -0.009559 0.0
1.186670 0.010955 0.0
1.200812 0.032397 0.0
1.206911 0.052666 0.0
1.204879 0.069587 0.0
1.194951 0.081123 0.0
1.177424 0.085959 0.0
1.152687 0.084251 0.0
1.121720 0.077725 0.0
1.086581 0.068542 0.0
1.050102 0.057827 0.0
1.014628 0.045500 0.0
0.980890 0.031691 0.0
0.948714 0.017883 0.0
0.919674 0.005830 0.0
0.897304 -0.004150 0.0
0.883619 -0.011854 0.0
0.877727 -0.016958 0.0
0.877746 -0.019747 0.0
0.882185 -0.020502 0.0
0.889934 -0.019306 0.0
0.900100 -0.016328 0.0
0.911819 -0.012091 0.0
0.924059 -0.007435 0.0
0.935911 -0.003128 0.0
0.946981 0.000156 0.0
0.957260 0.001933 0.0
0.966880 0.002130 0.0
0.975991 0.001127 0.0
0.984686 -0.000358 0.0
0.992986 -0.001481 0.0
1.000855 -0.001611 0.0
1.008147 -0.000557 0.0
1.014640 0.001601 0.0
1.020087 0.004555 0.0
1.024147 0.007773 0.0
1.026375 0.010600 0.0
1.026268 0.012570 0.0
1.023351 0.013402 0.0
1.017314 0.013064 0.0
1.008115 0.011759 0.0
0.996001 0.009752 0.0
0.981584 0.007365 0.0
0.966256 0.004914 0.0
0.952134 0.002316 0.0
0.941267 -0.000513 0.0
0.934850 -0.003197 0.0
0.932700 -0.004945 0.0
0.933730 -0.005177 0.0
0.936600 -0.003523 0.0
0.938023 0.001718 0.0
1.001462 -0.006320 0.0
1.007112 -0.019495 0.0
1.018096 -0.033706 0.0
1.034343 -0.048963 0.0
1.056064 -0.064924 0.0
1.083560 -0.080829 0.0
1.116947 -0.095387 0.0
1.155736 -0.106723 0.0
1.198447 -0.112747 0.0
1.242097 -0.111355 0.0
1.283074 -0.103198 0.0
1.318923 -0.090661 0.0
1.348758 -0.076265 0.0
1.372811 -0.061952 0.0
1.391915 -0.048992 0.0
1.407185 -0.038068 0.0
1.419821 -0.029344 0.0
1.430975 -0.022510 0.0
1.441581 -0.016774 0.0
1.452153 -0.010897 0.0
1.462526 -0.003413 0.0
1.471833 0.006985 0.0
1.478710 0.020965 0.0
1.481672 0.038308 0.0
1.479528 0.058058 0.0
1.471639 0.078820 0.0
1.457953 0.099095 0.0
1.438899 0.117530 0.0
1.415206 0.133021 0.0
1.387747 0.144723 0.0
1.357430 0.152011 0.0
1.325144 0.154445 0.0
1.291734 0.151767 0.0
1.257985 0.143919 0.0
1.224609 0.131096 0.0
1.192213 0.113800 0.0
1.161273 0.092911 0.0
1.132188 0.069761 0.0
1.105517 0.046080 0.0
1.082149 0.023339 0.0
1.063094 0.001978 0.0
1.049572 -0.017629 0.0
1.042841 -0.035401 0.0
1.043697 -0.051063 0.0
1.052434 -0.063786 0.0
1.068837 -0.072335 0.0
1.092343 -0.075399 0.0
1.122156 -0.071770 0.0
1.157134 -0.060529 0.0
1.195271 -0.041578 0.0
1.233042 -0.016325 0.0
1.266060 0.012518 0.0
1.291384 0.041121 0.0
1.308045 0.066504 0.0
1.315701 0.086479 0.0
1.314165 0.099666 0.0
1.303582 0.105864 0.0
1.284742 0.105919 0.0
1.259194 0.101035 0.0
1.228872 0.092135 0.0
1.195555 0.079982 0.0
1.160780 0.065721 0.0
1.126137 0.050673 0.0
1.092852 0.035365 0.0
1.061208 0.020328 0.0
1.031794 0.006766 0.0
1.006643 -0.004536 0.0
0.987644 -0.013189 0.0
0.974966 -0.018821 0.0
0.967695 -0.021466 0.0
0.964770 -0.021409 0.0
0.965171 -0.019129 0.0
0.967940 -0.015406 0.0
0.972256 -0.011325 0.0
0.977524 -0.007985 0.0
0.983490 -0.006171 0.0
0.990296 -0.006191 0.0
0.998430 -0.007798 0.0
1.008612 -0.010310 0.0
1.021606 -0.012823 0.0
1.037938 -0.014469 0.0
1.057579 -0.014632 0.0
1.079778 -0.013017 0.0
1.103162 -0.009657 0.0
1.126009 -0.004921 0.0
1.146513 0.000561 0.0
1.163140 0.006090 0.0
1.174860 0.011080 0.0
1.181120 0.015163 0.0
1.181761 0.018218 0.0
1.177034 0.020133 0.0
1.167648 0.020787 0.0
1.154566 0.019901 0.0
1.138705 0.017313 0.0
1.120829 0.013233 0.0
1.101939 0.008364 0.0
1.083924 0.003660 0.0
1.069084 0.000028 0.0
1.058867 -0.001381 0.0
1.052576 0.004445 0.0
1.001266 -0.009049 0.0
1.006306 -0.027457 0.0
1.016448 -0.046870 0.0
1.032045 -0.067645 0.0
1.053792 -0.089709 0.0
1.082619 -0.112368 0.0
1.119389 -0.134005 0.0
1.164221 -0.151726 0.0
1.215848 -0.162080 0.0
1.269145 -0.158969 0.0
1.317209 -0.144626 0.0
1.356515 -0.124388 0.0
1.386762 -0.102621 0.0
1.409175 -0.082062 0.0
1.425452 -0.064263 0.0
1.437377 -0.049992 0.0
1.446726 -0.039404 0.0
1.455206 -0.032083 0.0
1.464345 -0.026947 0.0
1.475195 -0.022146 0.0
1.487858 -0.015200 0.0
1.501041 -0.003717 0.0
1.512313 0.013517 0.0
1.519123 0.035984 0.0
1.519613 0.062036 0.0
1.512916 0.089428 0.0
1.499155 0.115934 0.0
1.479149 0.139751 0.0
1.454056 0.159587 0.0
1.425082 0.174590 0.0
1.393325 0.184217 0.0
1.359706 0.188143 0.0
1.324966 0.186218 0.0
1.289701 0.178481 0.0
1.254401 0.165209 0.0
1.219510 0.146974 0.0
1.185491 0.124696 0.0
1.152931 0.099621 0.0
1.122657 0.073165 0.0
1.095726 0.046552 0.0
1.073153 0.020396 0.0
1.055704 -0.005077 0.0
1.043983 -0.029501 0.0
1.038385 -0.052221 0.0
1.039096 -0.072076 0.0
1.046334 -0.087687 0.0
1.060630 -0.097849 0.0
1.082906 -0.101409 0.0
1.114049 -0.097010 0.0
1.154124 -0.083309 0.0
1.201498 -0.059738 0.0
1.251952 -0.027541 0.0
1.298418 0.009390 0.0
1.334889 0.045104 0.0
1.359711 0.075401 0.0
1.373242 0.098749 0.0
1.376036 0.114571 0.0
1.368999 0.123088 0.0
1.353427 0.124985 0.0
1.330839 0.121095 0.0
1.302781 0.112396 0.0
1.270795 0.100068 0.0
1.236425 0.085339 0.0
1.201122 0.069287 0.0
1.166226 0.052946 0.0
1.132830 0.036958 0.0
1.101457 0.021796 0.0
1.072516 0.008419 0.0
1.047004 -0.002239 0.0
1.025852 -0.009625 0.0
1.008982 -0.013456 0.0
0.995490 -0.013990 0.0
0.984265 -0.012089 0.0
0.974412 -0.009106 0.0
0.965523 -0.006583 0.0
0.957848 -0.005864 0.0
0.952291 -0.007746 0.0
0.950177 -0.012262 0.0
0.952898 -0.018749 0.0
0.961590 -0.026070 0.0
0.976896 -0.032860 0.0
0.998871 -0.037858 0.0
1.027016 -0.040134 0.0
1.060310 -0.039218 0.0
1.097182 -0.035081 0.0
1.135472 -0.028073 0.0
1.172457 -0.018887 0.0
1.205194 -0.008402 0.0
1.231210 0.002369 0.0
1.249258 0.012324 0.0
1.259438 0.020574 0.0
1.262484 0.026687 0.0
1.259254 0.030313 0.0
1.250708 0.031309 0.0
1.237981 0.029840 0.0
1.222374 0.026252 0.0
1.205140 0.021022 0.0
1.187449 0.015196 0.0
1.170762 0.010355 0.0
1.158298 0.011466 0.0
1.001071 -0.011386 0.0
1.005392 -0.034479 0.0
1.014303 -0.058901 0.0
1.028531 -0.085439 0.0
1.049360 -0.114491 0.0
1.078660 -0.145714 0.0
1.118669 -0.177437 0.0
1.171038 -0.205495 0.0
1.236412 -0.225310 0.0
1.304403 -0.217027 0.0
1.360206 -0.190436 0.0
1.400176 -0.157853 0.0
1.426720 -0.125947 0.0
1.443235 -0.097664 0.0
1.452633 -0.074336 0.0
1.457374 -0.056587 0.0
1.459713 -0.044496 0.0
1.461892 -0.037651 0.0
1.466227 -0.034853 0.0
1.474807 -0.033670 0.0
1.488680 -0.030213 0.0
1.506803 -0.020010 0.0
1.525353 -0.000012 0.0
1.539254 0.028802 0.0
1.544975 0.063007 0.0
1.541233 0.098895 0.0
1.528370 0.133092 0.0
1.507734 0.163235 0.0
1.481013 0.187919 0.0
1.449820 0.206425 0.0
1.415515 0.218445 0.0
1.379158 0.223892 0.0
1.341548 0.222820 0.0
1.303284 0.215409 0.0
1.264855 0.202010 0.0
1.226730 0.183190 0.0
1.189465 0.159765 0.0
1.153798 0.132779 0.0
1.120662 0.103417 0.0
1.091015 0.072877 0.0
1.065420 0.042238 0.0
1.043605 0.012345 0.0
1.024615 -0.016211 0.0
1.007791 -0.043088 0.0
0.993463 -0.067593 0.0
0.983117 -0.089061 0.0
0.979443 -0.107097 0.0
0.985793 -0.120788 0.0
1.005025 -0.128007 0.0
1.038519 -0.125882 0.0
1.085835 -0.111855 0.0
1.144657 -0.084701 0.0
1.210310 -0.045570 0.0
1.273730 0.000172 0.0
1.324885 0.044356 0.0
1.360332 0.080815 0.0
1.381434 0.108608 0.0
1.389807 0.127715 0.0
1.387105 0.138631 0.0
1.374996 0.142147 0.0
1.355117 0.139280 0.0
1.329073 0.131214 0.0
1.298439 0.119198 0.0
1.264729 0.104441 0.0
1.229363 0.088054 0.0
1.193614 0.070996 0.0
1.158572 0.054173 0.0
1.125104 0.038451 0.0
1.093643 0.024703 0.0
1.064142 0.014087 0.0
1.036282 0.007562 0.0
1.009535 0.005230 0.0
0.983358 0.006092 0.0
0.957724 0.008199 0.0
0.933510 0.009215 0.0
0.912362 0.007160 0.0
0.896179 0.000970 0.0
0.886679 -0.009365 0.0
0.885137 -0.022825 0.0
0.892037 -0.037585 0.0
0.907042 -0.051656 0.0
0.929360 -0.063356 0.0
0.958058 -0.071479 0.0
0.992176 -0.075284 0.0
1.030696 -0.074407 0.0
1.072448 -0.068789 0.0
1.115983 -0.058692 0.0
1.159437 -0.044789 0.0
1.200431 -0.028254 0.0
1.236123 -0.010794 0.0
1.263895 0.005740 0.0
1.282680 0.019690 0.0
1.293027 0.030193 0.0
1.295982 0.037021 0.0
1.292673 0.040165 0.0
1.284355 0.039851 0.0
1.272410 0.036602 0.0
1.258383 0.031333 0.0
1.244026 0.025261 0.0
1.232260 0.020790 0.0
1.000795 -0.013252 0.0
1.004031 -0.040171 0.0
1.010879 -0.068968 0.0
1.022324 -0.101045 0.0
1.040214 -0.137603 0.0
1.067570 -0.179258 0.0
1.108826 -0.225159 0.0
1.168963 -0.270279 0.0
1.255622 -0.312558 0.0
1.344035 -0.286183 0.0
1.401786 -0.234835 0.0
1.432337 -0.183975 0.0
1.445879 -0.139911 0.0
1.449082 -0.103419 0.0
1.445639 -0.074537 0.0
1.438006 -0.053495 0.0
1.428278 -0.040197 0.0
1.418675 -0.034527 0.0
1.412108 -0.035745 0.0
1.412203 -0.041453 0.0
1.422131 -0.046231 0.0
1.442769 -0.042753 0.0
1.471065 -0.024114 0.0
1.498354 0.011715 0.0
1.515916 0.056811 0.0
1.520894 0.103855 0.0
1.514119 0.147770 0.0
1.497702 0.185610 0.0
1.473910 0.216058 0.0
1.444660 0.238728 0.0
1.411432 0.253674 0.0
1.375335 0.261116 0.0
1.337208 0.261333 0.0
1.297719 0.254649 0.0
1.257451 0.241467 0.0
1.217001 0.222307 0.0
1.177077 0.197837 0.0
1.138558 0.168893 0.0
1.102444 0.136555 0.0
1.069496 0.102335 0.0
1.039558 0.068313 0.0
1.010942 0.036700 0.0
0.980711 0.008654 0.0
0.946408 -0.016827 0.0
0.909339 -0.042457 0.0
0.875459 -0.069970 0.0
0.852229 -0.099283 0.0
0.845204 -0.127927 0.0
0.856476 -0.151370 0.0
0.885371 -0.164907 0.0
0.930044 -0.164819 0.0
0.988312 -0.148827 0.0
1.057590 -0.116374 0.0
1.134257 -0.069112 0.0
1.210438 -0.013695 0.0
1.274233 0.039625 0.0
1.319923 0.083007 0.0
1.349121 0.115746 0.0
1.364016 0.138406 0.0
1.366635 0.151862 0.0
1.358873 0.157206 0.0
1.342525 0.155680 0.0
1.319291 0.148599 0.0
1.290780 0.137261 0.0
1.258481 0.122899 0.0
1.223727 0.106654 0.0
1.187640 0.089643 0.0
1.151024 0.073065 0.0
1.114238 0.058335 0.0
1.077189 0.047005 0.0
1.039507 0.040185 0.0
1.001000 0.037861 0.0
0.962225 0.038413 0.0
0.924813 0.038924 0.0
0.891264 0.036255 0.0
0.864280 0.028251 0.0
0.845995 0.014348 0.0
0.837385 -0.004632 0.0
0.838231 -0.026863 0.0
0.847550 -0.049766 0.0
0.864069 -0.070999 0.0
0.886598 -0.088859 0.0
0.914170 -0.102246 0.0
0.946033 -0.110499 0.0
0.981564 -0.113244 0.0
1.020161 -0.110301 0.0
1.061129 -0.101682 0.0
1.103556 -0.087679 0.0
1.146195 -0.068997 0.0
1.187368 -0.046917 0.0
1.224887 -0.023427 0.0
1.256067 -0.001107 0.0
1.278925 0.017784 0.0
1.293336 0.032063 0.0
1.300219 0.041549 0.0
1.300680 0.046325 0.0
1.295994 0.046760 0.0
1.287649 0.043548 0.0
1.277351 0.037701 0.0
1.267679 0.029788 0.0
1.000396 -0.014443 0.0
1.002023 -0.043844 0.0
1.005622 -0.075741 0.0
1.012188 -0.112283 0.0
1.023792 -0.155858 0.0
1.044379 -0.208946 0.0
1.081069 -0.273417 0.0
1.144959 -0.346047 0.0
1.262131 -0.440623 0.0
1.370864 -0.355263 0.0
1.407192 -0.259834 0.0
1.406490 -0.188825 0.0
1.393080 -0.135192 0.0
1.374754 -0.093015 0.0
1.353328 -0.060070 0.0
1.329584 -0.036585 0.0
1.304148 -0.021944 0.0
1.277712 -0.016742 0.0
1.252496 -0.021746 0.0
1.233649 -0.036700 0.0
1.227953 -0.055214 0.0
1.240567 -0.067022 0.0
1.273190 -0.060764 0.0
1.320299 -0.026033 0.0
1.364423 0.032874 0.0
1.392314 0.094922 0.0
1.404576 0.151216 0.0
1.404590 0.198565 0.0
1.395236 0.236250 0.0
1.378508 0.264514 0.0
1.355767 0.283857 0.0
1.328021 0.294776 0.0
1.296111 0.297710 0.0
1.260808 0.293064 0.0
1.222872 0.281255 0.0
1.183096 0.262744 0.0
1.142350 0.238070 0.0
1.101586 0.207942 0.0
1.061628 0.173578 0.0
1.022484 0.137402 0.0
0.982266 0.103403 0.0
0.937050 0.075442 0.0
0.883769 0.053425 0.0
0.824867 0.031607 0.0
0.768907 0.002138 0.0
0.726890 -0.038667 0.0
0.706395 -0.086861 0.0
0.707466 -0.134396 0.0
0.725742 -0.174449 0.0
0.757360 -0.202341 0.0
0.800253 -0.214952 0.0
0.853524 -0.210233 0.0
0.916500 -0.187222 0.0
0.987991 -0.146424 0.0
1.065760 -0.090333 0.0
1.144134 -0.025906 0.0
1.211940 0.035041 0.0
1.262195 0.084259 0.0
1.295920 0.121275 0.0
1.315170 0.147125 0.0
1.321865 0.163010 0.0
1.317828 0.170262 0.0
1.304797 0.170283 0.0
1.284405 0.164480 0.0
1.258160 0.154225 0.0
1.227386 0.140855 0.0
1.193154 0.125761 0.0
1.156176 0.110540 0.0
1.116768 0.097054 0.0
1.074976 0.087127 0.0
1.030973 0.081748 0.0
0.985602 0.080178 0.0
0.940777 0.079696 0.0
0.899369 0.076460 0.0
0.864522 0.067116 0.0
0.838747 0.050149 0.0
0.823300 0.026182 0.0
0.818086 -0.002643 0.0
0.821921 -0.033533 0.0
0.833109 -0.063603 0.0
0.850075 -0.090648 0.0
0.871587 -0.113251 0.0
0.896758 -0.130597 0.0
0.924989 -0.142241 0.0
0.955887 -0.147931 0.0
0.989178 -0.147501 0.0
1.024591 -0.140863 0.0
1.061751 -0.128085 0.0
1.100064 -0.109542 0.0
1.138617 -0.086098 0.0
1.176105 -0.059252 0.0
1.210803 -0.031161 0.0
1.240463 -0.004681 0.0
1.263063 0.017518 0.0
1.278117 0.034156 0.0
1.286304 0.045070 0.0
1.288596 0.050407 0.0
1.286222 0.050619 0.0
1.280653 0.046497 0.0
1.273917 0.037399 0.0
0.999872 -0.014711 0.0
0.999356 -0.044687 0.0
0.998456 -0.077598 0.0
0.997735 -0.116271 0.0
0.998667 -0.164407 0.0
1.004811 -0.227128 0.0
1.024519 -0.311634 0.0
1.076431 -0.423632 0.0
1.222098 -0.625877 0.0
1.325624 -0.382267 0.0
1.287036 -0.230571 0.0
1.225157 -0.155508 0.0
1.174621 -0.104564 0.0
1.133035 -0.063731 0.0
1.095301 -0.030194 0.0
1.055793 -0.003210 0.0
1.011708 0.014202 0.0
0.964945 0.020310 0.0
0.918338 0.013026 0.0
0.875502 -0.009789 0.0
0.845869 -0.046797 0.0
0.844088 -0.086272 0.0
0.878186 -0.108235 0.0
0.944857 -0.092344 0.0
1.030548 -0.030629 0.0
1.108018 0.053064 0.0
1.161878 0.126954 0.0
1.197538 0.187153 0.0
1.219567 0.234987 0.0
1.230240 0.271832 0.0
1.230841 0.298679 0.0
1.222358 0.316184 0.0
1.205756 0.324815 0.0
1.182041 0.324976 0.0
1.152245 0.317076 0.0
1.117368 0.301577 0.0
1.078251 0.279101 0.0
1.035132 0.250793 0.0
0.986717 0.219101 0.0
0.929499 0.188241 0.0
0.859831 0.162450 0.0
0.779696 0.141745 0.0
0.700571 0.119528 0.0
0.638527 0.086450 0.0
0.604212 0.037570 0.0
0.596889 -0.024759 0.0
0.607710 -0.091095 0.0
0.628391 -0.151913 0.0
0.655045 -0.201862 0.0
0.686699 -0.238201 0.0
0.723836 -0.259122 0.0
0.767546 -0.263044 0.0
0.818863 -0.248705 0.0
0.878182 -0.215751 0.0
0.944869 -0.165462 0.0
1.017037 -0.101319 0.0
1.090079 -0.030393 0.0
1.154354 0.035163 0.0
1.203252 0.087747 0.0
1.237174 0.127480 0.0
1.257590 0.155544 0.0
1.266044 0.173310 0.0
1.264077 0.182233 0.0
1.253186 0.183812 0.0
1.234770 0.179555 0.0
1.210059 0.171009 0.0
1.180030 0.159869 0.0
1.145348 0.148092 0.0
1.106434 0.137825 0.0
1.063742 0.130841 0.0
1.018227 0.127552 0.0
0.971786 0.126186 0.0
0.927296 0.123003 0.0
0.888081 0.113774 0.0
0.857019 0.095711 0.0
0.835786 0.068562 0.0
0.824659 0.034344 0.0
0.822814 -0.003746 0.0
0.828757 -0.042207 0.0
0.840781 -0.078140 0.0
0.857351 -0.109647 0.0
0.877249 -0.135662 0.0
0.899589 -0.155697 0.0
0.923805 -0.169587 0.0
0.949612 -0.177290 0.0
0.976936 -0.178756 0.0
1.005804 -0.173890 0.0
1.036215 -0.162630 0.0
1.068013 -0.145108 0.0
1.100782 -0.121854 0.0
1.133773 -0.093975 0.0
1.165880 -0.063243 0.0
1.195661 -0.032041 0.0
1.221257 -0.003318 0.0
1.240997 0.020198 0.0
1.254425 0.037414 0.0
1.262030 0.048168 0.0
1.264636 0.052627 0.0
1.263345 0.051350 0.0
1.259582 0.043046 0.0
0.999278 -0.013861 0.0
0.996305 -0.042048 0.0
0.990107 -0.073141 0.0
0.980313 -0.110212 0.0
0.966614 -0.157700 0.0
0.949433 -0.222797 0.0
0.932224 -0.318463 0.0
0.930044 -0.466534 0.0
1.026796 -0.825394 0.0
1.032194 -0.188665 0.0
0.858120 -0.098460 0.0
0.725512 -0.083089 0.0
0.655187 -0.056121 0.0
0.604268 -0.019669 0.0
0.547250 0.020495 0.0
0.480728 0.052131 0.0
0.413685 0.069990 0.0
0.354001 0.070970 0.0
0.310849 0.052125 0.0
0.293816 0.010981 0.0
0.308563 -0.052682 0.0
0.353837 -0.123878 0.0
0.425089 -0.175979 0.0
0.517162 -0.183344 0.0
0.625648 -0.133806 0.0
0.742908 -0.038489 0.0
0.846061 0.061494 0.0
0.923027 0.139986 0.0
0.981379 0.201771 0.0
1.024675 0.251079 0.0
1.053978 0.289528 0.0
1.070025 0.317772 0.0
1.073706 0.336149 0.0
1.066080 0.344982 0.0
1.048241 0.344705 0.0
1.021081 0.335984 0.0
0.984839 0.320053 0.0
0.938409 0.299389 0.0
0.879297 0.278033 0.0
0.806155 0.259667 0.0
0.723806 0.243041 0.0
0.645331 0.219764 0.0
0.586270 0.179696 0.0
0.555378 0.119217 0.0
0.551089 0.043407 0.0
0.565074 -0.037257 0.0
0.588143 -0.112486 0.0
0.614345 -0.177405 0.0
0.641237 -0.229915 0.0
0.668483 -0.269047 0.0
0.697081 -0.294010 0.0
0.728878 -0.303663 0.0
0.766009 -0.296533 0.0
0.810186 -0.271419 0.0
0.862066 -0.228362 0.0
0.920935 -0.169455 0.0
0.984719 -0.099082 0.0
1.049044 -0.024747 0.0
1.105802 0.042001 0.0
1.149637 0.095468 0.0
1.180624 0.136153 0.0
1.199621 0.165250 0.0
1.207728 0.184153 0.0
1.206128 0.194383 0.0
1.195978 0.197549 0.0
1.178317 0.195387 0.0
1.153991 0.189847 0.0
1.123657 0.183130 0.0
1.087944 0.177413 0.0
1.047816 0.174073 0.0
1.004988 0.172662 0.0
0.962108 0.170397 0.0
0.922440 0.162951 0.0
0.889091 0.146389 0.0
0.864205 0.119045 0.0
0.848592 0.082074 0.0
0.841919 0.038632 0.0
0.843149 -0.007419 0.0
0.850852 -0.052181 0.0
0.863468 -0.092806 0.0
0.879548 -0.127631 0.0
0.897862 -0.155891 0.0
0.917475 -0.177421 0.0
0.937786 -0.192389 0.0
0.958544 -0.201052 0.0
0.979800 -0.203574 0.0
1.001812 -0.199952 0.0
1.024899 -0.190065 0.0
1.049275 -0.173847 0.0
1.074920 -0.151529 0.0
1.101498 -0.123869 0.0
1.128331 -0.092288 0.0
1.154423 -0.058869 0.0
1.178528 -0.026191 0.0
1.199082 0.002778 0.0
1.214841 0.025646 0.0
1.225538 0.041634 0.0
1.231519 0.050573 0.0
1.233455 0.052760 0.0
1.232208 0.046646 0.0
0.998720 -0.011859 0.0
0.993435 -0.035791 0.0
0.982189 -0.061955 0.0
0.963491 -0.092905 0.0
0.934582 -0.132399 0.0
0.890394 -0.186729 0.0
0.820996 -0.267923 0.0
0.707146 -0.401044 0.0
0.317979 -0.701479 0.0
-0.472494 0.242700 0.0
-0.472494 0.000000 0.0
-0.028432 -0.019449 0.0
-0.049903 -0.036946 0.0
-0.027575 -0.010252 0.0
0.008094 0.032427 0.0
0.032466 0.082349 0.0
0.028458 0.110821 0.0
0.009244 0.109038 0.0
-0.009179 0.075631 0.0
-0.015449 0.010778 0.0
-0.002443 -0.080233 0.0
0.033180 -0.177224 0.0
0.092661 -0.253366 0.0
0.175576 -0.280944 0.0
0.278235 -0.247351 0.0
0.396730 -0.160699 0.0
0.524726 -0.047445 0.0
0.640462 0.056224 0.0
0.731156 0.136487 0.0
0.802808 0.201415 0.0
0.857806 0.254891 0.0
0.896620 0.297548 0.0
0.919844 0.329468 0.0
0.928271 0.350861 0.0
0.922642 0.362294 0.0
0.903244 0.364952 0.0
0.869496 0.361075 0.0
0.820217 0.354076 0.0
0.755863 0.346814 0.0
0.682403 0.337488 0.0
0.612707 0.317265 0.0
0.561425 0.275297 0.0
0.536803 0.207847 0.0
0.537512 0.121250 0.0
0.556253 0.026922 0.0
0.584107 -0.062611 0.0
0.614205 -0.140300 0.0
0.643026 -0.204616 0.0
0.668926 -0.255496 0.0
0.691580 -0.293366 0.0
0.711848 -0.318558 0.0
0.731707 -0.330771 0.0
0.753951 -0.328799 0.0
0.781507 -0.310886 0.0
0.816503 -0.275771 0.0
0.859542 -0.223953 0.0
0.909551 -0.158378 0.0
0.964061 -0.084285 0.0
1.018395 -0.009553 0.0
1.065975 0.055607 0.0
1.103031 0.107971 0.0
1.129335 0.148130 0.0
1.145297 0.177204 0.0
1.151619 0.196611 0.0
1.149101 0.207989 0.0
1.138516 0.213193 0.0
1.120549 0.214332 0.0
1.095870 0.213658 0.0
1.065363 0.213105 0.0
1.030477 0.213394 0.0
0.993489 0.213156 0.0
0.957391 0.208880 0.0
0.925313 0.196214 0.0
0.899740 0.172049 0.0
0.882000 0.136011 0.0
0.872293 0.090427 0.0
0.870060 0.039185 0.0
0.874326 -0.013467 0.0
0.883823 -0.063334 0.0
0.897125 -0.107570 0.0
0.912833 -0.144655 0.0
0.929710 -0.174059 0.0
0.946774 -0.195931 0.0
0.963384 -0.210800 0.0
0.979277 -0.219292 0.0
0.994577 -0.221890 0.0
1.009711 -0.218784 0.0
1.025269 -0.209878 0.0
1.041813 -0.194953 0.0
1.059697 -0.173952 0.0
1.078951 -0.147279 0.0
1.099242 -0.116002 0.0
1.119900 -0.081906 0.0
1.139997 -0.047356 0.0
1.158416 -0.015030 0.0
1.173874 0.012236 0.0
1.185505 0.032717 0.0
1.193172 0.045842 0.0
1.197113 0.051615 0.0
1.197723 0.048428 0.0
0.998322 -0.008902 0.0
0.991403 -0.026544 0.0
0.976644 -0.045197 0.0
0.951900 -0.066221 0.0
0.913042 -0.091316 0.0
0.852070 -0.122653 0.0
0.752181 -0.162712 0.0
0.573687 -0.213911 0.0
0.228871 -0.253645 0.0
0.000000 0.242700 0.0
-0.000000 -0.000000 0.0
0.000000 0.000000 0.0
-0.022346 -0.021953 0.0
-0.052201 -0.018110 0.0
-0.067525 0.019939 0.0
-0.088967 0.091907 0.0
-0.121101 0.137406 0.0
-0.158029 0.138597 0.0
-0.189266 0.095731 0.0
-0.204896 0.012578 0.0
-0.199110 -0.100825 0.0
-0.173056 -0.218310 0.0
-0.130585 -0.314232 0.0
-0.068483 -0.365095 0.0
0.019334 -0.353677 0.0
0.128055 -0.281589 0.0
0.251096 -0.177594 0.0
0.382433 -0.060701 0.0
0.501174 0.043977 0.0
0.595053 0.128394 0.0
0.668844 0.199123 0.0
0.724751 0.258595 0.0
0.763155 0.306794 0.0
0.784359 0.343905 0.0
0.788466 0.370773 0.0
0.775211 0.389125 0.0
0.744372 0.401489 0.0
0.697495 0.409819 0.0
0.640689 0.412231 0.0
0.585718 0.400501 0.0
0.546146 0.363520 0.0
0.530359 0.296111 0.0
0.538110 0.203904 0.0
0.563310 0.099283 0.0
0.598103 -0.004646 0.0
0.635200 -0.095994 0.0
0.670048 -0.171863 0.0
0.700578 -0.232404 0.0
0.725605 -0.278634 0.0
0.744694 -0.311970 0.0
0.758293 -0.333822 0.0
0.767959 -0.345033 0.0
0.776461 -0.345285 0.0
0.787441 -0.332937 0.0
0.804477 -0.305752 0.0
0.829887 -0.262421 0.0
0.863966 -0.203999 0.0
0.905080 -0.134289 0.0
0.950306 -0.059110 0.0
0.994674 0.013215 0.0
1.032997 0.074984 0.0
1.062922 0.124890 0.0
1.083959 0.163446 0.0
1.096207 0.191799 0.0
1.100027 0.211500 0.0
1.095876 0.224419 0.0
1.084279 0.232670 0.0
1.065937 0.238341 0.0
1.041983 0.242884 0.0
1.014245 0.246241 0.0
0.985282 0.246261 0.0
0.958030 0.239126 0.0
0.935117 0.220960 0.0
0.918255 0.189738 0.0
0.908084 0.146232 0.0
0.904455 0.093541 0.0
0.906837 0.035923 0.0
0.914390 -0.022023 0.0
0.925901 -0.075787 0.0
0.939983 -0.122501 0.0
0.955298 -0.160748 0.0
0.970659 -0.190203 0.0
0.985110 -0.211303 0.0
0.998012 -0.224940 0.0
1.009107 -0.232142 0.0
1.018549 -0.233782 0.0
1.026873 -0.230350 0.0
1.034879 -0.221875 0.0
1.043434 -0.208054 0.0
1.053253 -0.188555 0.0
1.064727 -0.163404 0.0
1.077845 -0.133285 0.0
1.092215 -0.099652 0.0
1.107143 -0.064635 0.0
1.121744 -0.030770 0.0
1.134973 -0.000712 0.0
1.145831 0.023176 0.0
1.153738 0.039809 0.0
1.158576 0.048868 0.0
1.160381 0.048760 0.0
0.998163 -0.005387 0.0
0.990621 -0.015597 0.0
0.974656 -0.025420 0.0
0.948259 -0.034857 0.0
0.907861 -0.043424 0.0
0.847561 -0.049274 0.0
0.758577 -0.047218 0.0
0.629989 -0.022322 0.0
0.467420 0.066144 0.0
0.190248 0.171616 0.0
0.000000 0.000000 0.0
-0.000000 -0.000000 0.0
0.000000 0.000000 0.0
-0.006132 -0.005300 0.0
-0.034058 0.049547 0.0
-0.091004 0.140687 0.0
-0.156801 0.186556 0.0
-0.210986 0.180561 0.0
-0.248034 0.122051 0.0
-0.261194 0.015048 0.0
-0.249613 -0.120662 0.0
-0.223094 -0.251045 0.0
-0.191298 -0.355764 0.0
-0.155306 -0.421657 0.0
-0.105753 -0.434485 0.0
-0.029021 -0.386233 0.0
0.071888 -0.296900 0.0
0.186669 -0.187513 0.0
0.307469 -0.068752 0.0
0.415876 0.038838 0.0
0.501805 0.128959 0.0
0.568221 0.206436 0.0
0.616361 0.272410 0.0
0.646191 0.327255 0.0
0.657524 0.371983 0.0
0.650585 0.408109 0.0
0.627293 0.436637 0.0
0.593149 0.455693 0.0
0.558117 0.458196 0.0
0.534120 0.433505 0.0
0.529580 0.374630 0.0
0.545735 0.284633 0.0
0.578190 0.175176 0.0
0.620844 0.060158 0.0
0.666449 -0.045919 0.0
0.709196 -0.134566 0.0
0.746693 -0.205637 0.0
0.777647 -0.260115 0.0
0.801293 -0.299596 0.0
0.817290 -0.326093 0.0
0.825790 -0.341797 0.0
0.827706 -0.348639 0.0
0.825112 -0.347586 0.0
0.821446 -0.337949 0.0
0.821056 -0.317385 0.0
0.827959 -0.283101 0.0
0.844407 -0.233846 0.0
0.870192 -0.171341 0.0
0.903061 -0.100153 0.0
0.939520 -0.026568 0.0
0.974753 0.041211 0.0
1.004821 0.098670 0.0
1.028171 0.145279 0.0
1.044209 0.181680 0.0
1.052819 0.209190 0.0
1.054147 0.229552 0.0
1.048578 0.244703 0.0
1.036869 0.256358 0.0
1.020358 0.265332 0.0
1.001076 0.270813 0.0
0.981577 0.270149 0.0
0.964420 0.259646 0.0