# vtk DataFile Version 3.0
Vector Field
ASCII
DATASET RECTILINEAR_GRID
DIMENSIONS 100 26 1
X_COORDINATES 100 double
0.050000 0.150000 0.250000 0.350000 0.450000 0.550000 0.650000 0.750000 0.850000 0.950000 1.050000 1.150000 1.250000 1.350000 1.450000 1.550000 1.650000 1.750000 1.850000 1.950000 2.050000 2.150000 2.250000 2.350000 2.450000 2.550000 2.650000 2.750000 2.850000 2.950000 3.050000 3.150000 3.250000 3.350000 3.450000 3.550000 3.650000 3.750000 3.850000 3.950000 4.050000 4.150000 4.250000 4.350000 4.450000 4.550000 4.650000 4.750000 4.850000 4.950000 5.050000 5.150000 5.250000 5.350000 5.450000 5.550000 5.650000 5.750000 5.850000 5.950000 6.050000 6.150000 6.250000 6.350000 6.450000 6.550000 6.650000 6.750000 6.850000 6.950000 7.050000 7.150000 7.250000 7.350000 7.450000 7.550000 7.650000 7.750000 7.850000 7.950000 8.050000 8.150000 8.250000 8.350000 8.450000 8.550000 8.650000 8.750000 8.850000 8.950000 9.050000 9.150000 9.250000 9.350000 9.450000 9.550000 9.650000 9.750000 9.850000 9.950000 
Y_COORDINATES 26 double
0.050000 0.150000 0.250000 0.350000 0.450000 0.550000 0.650000 0.750000 0.850000 0.950000 1.050000 1.150000 1.250000 1.350000 1.450000 1.550000 1.650000 1.750000 1.850000 1.950000 2.050000 2.150000 2.250000 2.350000 2.450000 2.550000 
Z_COORDINATES 1 double
0.0
POINT_DATA 2600
VECTORS Vektorfeld double
0.997786 0.002214 0.0
0.993478 0.002094 0.0
0.990960 0.000425 0.0
0.992403 -0.001869 0.0
0.998634 -0.004362 0.0
1.009760 -0.006764 0.0
1.025317 -0.008793 0.0
1.044276 -0.010165 0.0
1.065069 -0.010628 0.0
1.085733 -0.010035 0.0
1.104179 -0.008412 0.0
1.118542 -0.005951 0.0
1.127450 -0.002957 0.0
1.130243 0.000163 0.0
1.126909 0.003172 0.0
1.117762 0.005975 0.0
1.103358 0.008429 0.0
1.084509 0.010420 0.0
1.062222 0.011866 0.0
1.037634 0.012722 0.0
1.011932 0.012980 0.0
0.986273 0.012679 0.0
0.961692 0.011902 0.0
0.939015 0.010776 0.0
0.918769 0.009471 0.0
0.901105 0.008193 0.0
0.885740 0.007171 0.0
0.871939 0.006630 0.0
0.858562 0.006747 0.0
0.844206 0.007609 0.0
0.827411 0.009186 0.0
0.806886 0.011339 0.0
0.781687 0.013860 0.0
0.751320 0.016507 0.0
0.715769 0.019043 0.0
0.675475 0.021251 0.0
0.631283 0.022941 0.0
0.584390 0.023952 0.0
0.536305 0.024134 0.0
0.488821 0.023351 0.0
0.443995 0.021475 0.0
0.404190 0.018331 0.0
0.372249 0.013609 0.0
0.351494 0.007146 0.0
0.344247 0.000101 0.0
0.348552 -0.004406 0.0
0.359389 -0.006431 0.0
0.373058 -0.007238 0.0
0.387638 -0.007343 0.0
0.402009 -0.007028 0.0
0.415502 -0.006464 0.0
0.427738 -0.005773 0.0
0.438553 -0.005042 0.0
0.447930 -0.004335 0.0
0.455958 -0.003693 0.0
0.462790 -0.003139 0.0
0.468612 -0.002682 0.0
0.473613 -0.002319 0.0
0.477972 -0.002039 0.0
0.481839 -0.001828 0.0
0.485337 -0.001669 0.0
0.488553 -0.001547 0.0
0.491546 -0.001446 0.0
0.494349 -0.001357 0.0
0.496977 -0.001271 0.0
0.499430 -0.001183 0.0
0.501704 -0.001091 0.0
0.503790 -0.000995 0.0
0.505683 -0.000897 0.0
0.507379 -0.000799 0.0
0.508881 -0.000703 0.0
0.510196 -0.000611 0.0
0.511333 -0.000526 0.0
0.512307 -0.000448 0.0
0.513133 -0.000378 0.0
0.513827 -0.000316 0.0
0.514406 -0.000263 0.0
0.514885 -0.000217 0.0
0.515281 -0.000179 0.0
0.515606 -0.000147 0.0
0.515873 -0.000121 0.0
0.516094 -0.000100 0.0
0.516278 -0.000084 0.0
0.516433 -0.000072 0.0
0.516569 -0.000064 0.0
0.516692 -0.000059 0.0
0.516809 -0.000058 0.0
0.516928 -0.000061 0.0
0.517056 -0.000067 0.0
0.517200 -0.000078 0.0
0.517371 -0.000093 0.0
0.517579 -0.000115 0.0
0.517838 -0.000144 0.0
0.518166 -0.000184 0.0
0.518585 -0.000236 0.0
0.519128 -0.000307 0.0
0.519837 -0.000402 0.0
0.520767 -0.000529 0.0
0.521992 -0.000696 0.0
0.523528 -0.000839 0.0
1.003082 0.001346 0.0
1.012071 -0.001720 0.0
1.026146 -0.007318 0.0
1.044670 -0.014093 0.0
1.067541 -0.021240 0.0
1.094595 -0.028067 0.0
1.125372 -0.033824 0.0
1.158976 -0.037696 0.0
1.194018 -0.038931 0.0
1.228672 -0.037050 0.0
1.260968 -0.032140 0.0
1.289189 -0.024807 0.0
1.312105 -0.015924 0.0
1.328881 -0.006439 0.0
1.339079 0.002910 0.0
1.342833 0.011629 0.0
1.340749 0.019263 0.0
1.333713 0.025471 0.0
1.322805 0.030011 0.0
1.309222 0.032748 0.0
1.294211 0.033667 0.0
1.278981 0.032882 0.0
1.264618 0.030643 0.0
1.251991 0.027338 0.0
1.241662 0.023483 0.0
1.233806 0.019701 0.0
1.228145 0.016689 0.0
1.223926 0.015133 0.0
1.219961 0.015586 0.0
1.214768 0.018319 0.0
1.206802 0.023237 0.0
1.194705 0.029911 0.0
1.177494 0.037698 0.0
1.154659 0.045871 0.0
1.126173 0.053716 0.0
1.092458 0.060586 0.0
1.054336 0.065920 0.0
1.012971 0.069231 0.0
0.969819 0.070092 0.0
0.926576 0.068120 0.0
0.885121 0.062985 0.0
0.847371 0.054377 0.0
0.814754 0.042120 0.0
0.787199 0.026946 0.0
0.763176 0.011570 0.0
0.743509 -0.000513 0.0
0.731363 -0.009015 0.0
0.727250 -0.014210 0.0
0.729181 -0.016882 0.0
0.735160 -0.017838 0.0
0.743638 -0.017625 0.0
0.753463 -0.016674 0.0
0.763815 -0.015307 0.0
0.774133 -0.013766 0.0
0.784070 -0.012227 0.0
0.793441 -0.010809 0.0
0.802191 -0.009584 0.0
0.810353 -0.008581 0.0
0.818019 -0.007801 0.0
0.825306 -0.007221 0.0
0.832333 -0.006801 0.0
0.839201 -0.006499 0.0
0.845981 -0.006267 0.0
0.852709 -0.006068 0.0
0.859389 -0.005868 0.0
0.865995 -0.005645 0.0
0.872480 -0.005388 0.0
0.878788 -0.005092 0.0
0.884858 -0.004762 0.0
0.890632 -0.004405 0.0
0.896062 -0.004030 0.0
0.901114 -0.003650 0.0
0.905763 -0.003274 0.0
0.910001 -0.002911 0.0
0.913830 -0.002568 0.0
0.917261 -0.002250 0.0
0.920314 -0.001960 0.0
0.923014 -0.001699 0.0
0.925388 -0.001467 0.0
0.927468 -0.001263 0.0
0.929282 -0.001086 0.0
0.930860 -0.000933 0.0
0.932230 -0.000804 0.0
0.933417 -0.000695 0.0
0.934446 -0.000605 0.0
0.935338 -0.000533 0.0
0.936113 -0.000477 0.0
0.936788 -0.000436 0.0
0.937380 -0.000411 0.0
0.937902 -0.000401 0.0
0.938368 -0.000407 0.0
0.938790 -0.000431 0.0
0.939181 -0.000478 0.0
0.939553 -0.000549 0.0
0.939917 -0.000654 0.0
0.940287 -0.000802 0.0
0.940679 -0.001007 0.0
0.941117 -0.001292 0.0
0.941662 -0.001702 0.0
0.942382 -0.002089 0.0
1.001993 -0.003728 0.0
1.009161 -0.012803 0.0
1.022283 -0.023433 0.0
1.040834 -0.035052 0.0
1.064671 -0.046989 0.0
1.093676 -0.058378 0.0
1.127471 -0.068085 0.0
1.165156 -0.074724 0.0
1.205109 -0.076898 0.0
1.244921 -0.073550 0.0
1.281874 -0.064889 0.0
1.313762 -0.052167 0.0
1.339261 -0.036977 0.0
1.357863 -0.020764 0.0
1.369649 -0.004751 0.0
1.375088 0.010096 0.0
1.374903 0.023067 0.0
1.369982 0.033624 0.0
1.361363 0.041385 0.0
1.350184 0.046135 0.0
1.337634 0.047841 0.0
1.324894 0.046678 0.0
1.313067 0.043038 0.0
1.303105 0.037533 0.0
1.295739 0.030982 0.0
1.291412 0.024385 0.0
1.290200 0.018879 0.0
1.291702 0.015660 0.0
1.294973 0.015753 0.0
1.298604 0.019713 0.0
1.300982 0.027431 0.0
1.300609 0.038186 0.0
1.296346 0.050896 0.0
1.287495 0.064359 0.0
1.273792 0.077418 0.0
1.255352 0.089038 0.0
1.232612 0.098330 0.0
1.206263 0.104534 0.0
1.177199 0.107004 0.0
1.146441 0.105209 0.0
1.115021 0.098771 0.0
1.083785 0.087577 0.0
1.053172 0.072149 0.0
1.023401 0.054244 0.0
0.995166 0.036530 0.0
0.969092 0.020268 0.0
0.945151 0.006291 0.0
0.924291 -0.004544 0.0
0.908109 -0.012298 0.0
0.896910 -0.017201 0.0
0.889960 -0.019791 0.0
0.886335 -0.020708 0.0
0.885181 -0.020469 0.0
0.885765 -0.019505 0.0
0.887510 -0.018170 0.0
0.890012 -0.016739 0.0
0.893016 -0.015407 0.0
0.896394 -0.014298 0.0
0.900114 -0.013470 0.0
0.904199 -0.012924 0.0
0.908695 -0.012621 0.0
0.913642 -0.012494 0.0
0.919057 -0.012467 0.0
0.924922 -0.012462 0.0
0.931186 -0.012416 0.0
0.937765 -0.012281 0.0
0.944555 -0.012028 0.0
0.951441 -0.011647 0.0
0.958310 -0.011145 0.0
0.965053 -0.010539 0.0
0.971576 -0.009851 0.0
0.977803 -0.009109 0.0
0.983676 -0.008338 0.0
0.989154 -0.007564 0.0
0.994214 -0.006805 0.0
0.998847 -0.006078 0.0
1.003057 -0.005395 0.0
1.006855 -0.004762 0.0
1.010262 -0.004185 0.0
1.013302 -0.003664 0.0
1.016002 -0.003199 0.0
1.018391 -0.002787 0.0
1.020498 -0.002427 0.0
1.022351 -0.002113 0.0
1.023976 -0.001842 0.0
1.025401 -0.001612 0.0
1.026647 -0.001419 0.0
1.027736 -0.001259 0.0
1.028688 -0.001131 0.0
1.029521 -0.001035 0.0
1.030250 -0.000968 0.0
1.030890 -0.000933 0.0
1.031453 -0.000930 0.0
1.031950 -0.000965 0.0
1.032390 -0.001043 0.0
1.032780 -0.001173 0.0
1.033124 -0.001371 0.0
1.033417 -0.001659 0.0
1.033628 -0.002090 0.0
1.033748 -0.002542 0.0
1.001618 -0.007339 0.0
1.007913 -0.022655 0.0
1.020220 -0.039009 0.0
1.038481 -0.056288 0.0
1.062885 -0.073995 0.0
1.093679 -0.091171 0.0
1.130859 -0.106268 0.0
1.173726 -0.117093 0.0
1.220466 -0.121222 0.0
1.267524 -0.116097 0.0
1.310559 -0.102330 0.0
1.346493 -0.082550 0.0
1.373975 -0.059574 0.0
1.392851 -0.035644 0.0
1.403625 -0.012430 0.0
1.407146 0.008816 0.0
1.404439 0.027238 0.0
1.396640 0.042172 0.0
1.384978 0.053119 0.0
1.370775 0.059784 0.0
1.355405 0.062112 0.0
1.340233 0.060319 0.0
1.326546 0.054911 0.0
1.315488 0.046681 0.0
1.307995 0.036694 0.0
1.304736 0.026259 0.0
1.306015 0.016938 0.0
1.311548 0.010566 0.0
1.320233 0.008891 0.0
1.330219 0.012957 0.0
1.339382 0.022647 0.0
1.345926 0.036799 0.0
1.348705 0.053768 0.0
1.347194 0.071849 0.0
1.341336 0.089489 0.0
1.331364 0.105378 0.0
1.317659 0.118435 0.0
1.300670 0.127768 0.0
1.280855 0.132650 0.0
1.258645 0.132532 0.0
1.234391 0.127122 0.0
1.208312 0.116541 0.0
1.180532 0.101577 0.0
1.151313 0.083805 0.0
1.121325 0.065193 0.0
1.091608 0.047396 0.0
1.063264 0.031448 0.0
1.036880 0.017544 0.0
1.012615 0.006061 0.0
0.991013 -0.002758 0.0
0.972813 -0.009085 0.0
0.958227 -0.013203 0.0
0.946913 -0.015506 0.0
0.938343 -0.016481 0.0
0.932010 -0.016607 0.0
0.927500 -0.016293 0.0
0.924504 -0.015861 0.0
0.922826 -0.015545 0.0
0.922359 -0.015477 0.0
0.923051 -0.015694 0.0
0.924869 -0.016164 0.0
0.927770 -0.016800 0.0
0.931685 -0.017491 0.0
0.936508 -0.018126 0.0
0.942098 -0.018606 0.0
0.948291 -0.018863 0.0
0.954911 -0.018856 0.0
0.961783 -0.018577 0.0
0.968741 -0.018042 0.0
0.975641 -0.017285 0.0
0.982361 -0.016348 0.0
0.988805 -0.015282 0.0
0.994901 -0.014133 0.0
1.000601 -0.012946 0.0
1.005877 -0.011758 0.0
1.010716 -0.010598 0.0
1.015121 -0.009490 0.0
1.019104 -0.008449 0.0
1.022684 -0.007485 0.0
1.025885 -0.006605 0.0
1.028735 -0.005808 0.0
1.031262 -0.005094 0.0
1.033496 -0.004460 0.0
1.035465 -0.003901 0.0
1.037196 -0.003411 0.0
1.038715 -0.002986 0.0
1.040045 -0.002621 0.0
1.041209 -0.002310 0.0
1.042225 -0.002049 0.0
1.043111 -0.001836 0.0
1.043883 -0.001668 0.0
1.044554 -0.001544 0.0
1.045136 -0.001464 0.0
1.045639 -0.001431 0.0
1.046069 -0.001447 0.0
1.046430 -0.001520 0.0
1.046719 -0.001658 0.0
1.046926 -0.001873 0.0
1.047019 -0.002180 0.0
1.046976 -0.002529 0.0
1.001432 -0.010389 0.0
1.007164 -0.031632 0.0
1.018741 -0.053915 0.0
1.036552 -0.077453 0.0
1.061312 -0.101993 0.0
1.093945 -0.126600 0.0
1.135259 -0.149333 0.0
1.185217 -0.166853 0.0
1.242313 -0.175297 0.0
1.300647 -0.167414 0.0
1.352206 -0.145606 0.0
1.392799 -0.115802 0.0
1.421766 -0.082772 0.0
1.439947 -0.049504 0.0
1.448544 -0.017942 0.0
1.448859 0.010493 0.0
1.442189 0.034939 0.0
1.429827 0.054632 0.0
1.413208 0.068940 0.0
1.393904 0.077468 0.0
1.373578 0.080123 0.0
1.353897 0.077160 0.0
1.336452 0.069201 0.0
1.322672 0.057229 0.0
1.313754 0.042557 0.0
1.310635 0.026774 0.0
1.313966 0.011815 0.0
1.323677 0.000445 0.0
1.338294 -0.004290 0.0
1.354921 -0.000476 0.0
1.370217 0.011622 0.0
1.381670 0.029825 0.0
1.388106 0.051527 0.0
1.389367 0.074340 0.0
1.385898 0.096324 0.0
1.378387 0.116027 0.0
1.367503 0.132374 0.0
1.353773 0.144549 0.0
1.337537 0.151921 0.0
1.318955 0.154053 0.0
1.298040 0.150771 0.0
1.274712 0.142299 0.0
1.248924 0.129388 0.0
1.220838 0.113299 0.0
1.190968 0.095557 0.0
1.160144 0.077573 0.0
1.129339 0.060420 0.0
1.099480 0.044816 0.0
1.071351 0.031183 0.0
1.045463 0.019610 0.0
1.022032 0.010178 0.0
1.001234 0.002918 0.0
0.983287 -0.002366 0.0
0.968263 -0.006027 0.0
0.956014 -0.008481 0.0
0.946270 -0.010165 0.0
0.938771 -0.011494 0.0
0.933329 -0.012793 0.0
0.929821 -0.014254 0.0
0.928154 -0.015942 0.0
0.928235 -0.017815 0.0
0.929944 -0.019760 0.0
0.933123 -0.021626 0.0
0.937572 -0.023263 0.0
0.943058 -0.024545 0.0
0.949331 -0.025390 0.0
0.956141 -0.025759 0.0
0.963254 -0.025658 0.0
0.970462 -0.025128 0.0
0.977591 -0.024228 0.0
0.984503 -0.023036 0.0
0.991093 -0.021628 0.0
0.997289 -0.020080 0.0
1.003046 -0.018458 0.0
1.008343 -0.016818 0.0
1.013173 -0.015207 0.0
1.017547 -0.013659 0.0
1.021482 -0.012198 0.0
1.025005 -0.010838 0.0
1.028143 -0.009591 0.0
1.030928 -0.008457 0.0
1.033391 -0.007436 0.0
1.035562 -0.006524 0.0
1.037473 -0.005716 0.0
1.039149 -0.005004 0.0
1.040617 -0.004381 0.0
1.041901 -0.003840 0.0
1.043021 -0.003374 0.0
1.043996 -0.002976 0.0
1.044843 -0.002642 0.0
1.045577 -0.002367 0.0
1.046210 -0.002149 0.0
1.046753 -0.001984 0.0
1.047213 -0.001873 0.0
1.047595 -0.001817 0.0
1.047902 -0.001818 0.0
1.048131 -0.001878 0.0
1.048271 -0.002000 0.0
1.048307 -0.002182 0.0
1.048222 -0.002400 0.0
1.001246 -0.013067 0.0
1.006298 -0.039738 0.0
1.016739 -0.067826 0.0
1.033359 -0.097973 0.0
1.057510 -0.130385 0.0
1.091128 -0.164460 0.0
1.136502 -0.198161 0.0
1.195250 -0.226731 0.0
1.268148 -0.245414 0.0
1.343554 -0.231037 0.0
1.404792 -0.194780 0.0
1.447926 -0.150355 0.0
1.475539 -0.104799 0.0
1.490749 -0.060868 0.0
1.495641 -0.020066 0.0
1.491646 0.016296 0.0
1.479955 0.047496 0.0
1.461842 0.072549 0.0
1.438895 0.090590 0.0
1.412959 0.101059 0.0
1.386026 0.103793 0.0
1.360126 0.099072 0.0
1.337210 0.087649 0.0
1.319034 0.070737 0.0
1.307057 0.049944 0.0
1.302452 0.027111 0.0
1.306238 0.004362 0.0
1.318842 -0.014418 0.0
1.339019 -0.024220 0.0
1.363266 -0.021421 0.0
1.386397 -0.005859 0.0
1.403800 0.018449 0.0
1.413739 0.046528 0.0
1.416751 0.075066 0.0
1.414058 0.101760 0.0
1.406971 0.125190 0.0
1.396556 0.144510 0.0
1.383524 0.159175 0.0
1.368251 0.168805 0.0
1.350838 0.173163 0.0
1.331200 0.172214 0.0
1.309166 0.166217 0.0
1.284619 0.155806 0.0
1.257625 0.141960 0.0
1.228533 0.125859 0.0
1.197958 0.108670 0.0
1.166688 0.091397 0.0
1.135567 0.074820 0.0
1.105383 0.059492 0.0
1.076794 0.045777 0.0
1.050312 0.033925 0.0
1.026283 0.023997 0.0
1.004872 0.015913 0.0
0.986108 0.009483 0.0
0.969982 0.004386 0.0
0.956494 0.000200 0.0
0.945640 -0.003506 0.0
0.937376 -0.007075 0.0
0.931633 -0.010719 0.0
0.928319 -0.014496 0.0
0.927312 -0.018334 0.0
0.928432 -0.022070 0.0
0.931437 -0.025500 0.0
0.936030 -0.028431 0.0
0.941879 -0.030712 0.0
0.948641 -0.032258 0.0
0.955989 -0.033048 0.0
0.963626 -0.033120 0.0
0.971306 -0.032553 0.0
0.978828 -0.031454 0.0
0.986042 -0.029937 0.0
0.992846 -0.028120 0.0
0.999173 -0.026110 0.0
1.004989 -0.024000 0.0
1.010285 -0.021868 0.0
1.015069 -0.019773 0.0
1.019363 -0.017761 0.0
1.023195 -0.015863 0.0
1.026600 -0.014100 0.0
1.029613 -0.012481 0.0
1.032272 -0.011010 0.0
1.034612 -0.009685 0.0
1.036667 -0.008501 0.0
1.038466 -0.007449 0.0
1.040040 -0.006521 0.0
1.041414 -0.005706 0.0
1.042611 -0.004995 0.0
1.043652 -0.004379 0.0
1.044555 -0.003849 0.0
1.045335 -0.003397 0.0
1.046006 -0.003018 0.0
1.046581 -0.002705 0.0
1.047066 -0.002456 0.0
1.047471 -0.002266 0.0
1.047798 -0.002134 0.0
1.048049 -0.002059 0.0
1.048222 -0.002038 0.0
1.048311 -0.002069 0.0
1.048307 -0.002144 0.0
1.048202 -0.002248 0.0
1.000972 -0.015285 0.0
1.004954 -0.046555 0.0
1.013371 -0.079867 0.0
1.027301 -0.116484 0.0
1.048707 -0.157432 0.0
1.080760 -0.203084 0.0
1.128095 -0.252245 0.0
1.195868 -0.299168 0.0
1.292750 -0.342758 0.0
1.391365 -0.307714 0.0
1.456120 -0.244097 0.0
1.491931 -0.179983 0.0
1.510587 -0.121438 0.0
1.518798 -0.067650 0.0
1.518623 -0.018001 0.0
1.510109 0.026740 0.0
1.493362 0.065490 0.0
1.469327 0.096703 0.0
1.439620 0.119088 0.0
1.406293 0.131823 0.0
1.371634 0.134620 0.0
1.338016 0.127763 0.0
1.307749 0.112141 0.0
1.282903 0.089267 0.0
1.265096 0.061197 0.0
1.255299 0.030260 0.0
1.254061 -0.001335 0.0
1.262590 -0.029855 0.0
1.281654 -0.048024 0.0
1.309550 -0.049760 0.0
1.341568 -0.032667 0.0
1.369939 -0.000516 0.0
1.388738 0.036755 0.0
1.397871 0.072695 0.0
1.399845 0.104850 0.0
1.396793 0.132239 0.0
1.390118 0.154550 0.0
1.380602 0.171682 0.0
1.368589 0.183583 0.0
1.354151 0.190236 0.0
1.337204 0.191725 0.0
1.317623 0.188320 0.0
1.295335 0.180539 0.0
1.270420 0.169136 0.0
1.243166 0.155028 0.0
1.214076 0.139166 0.0
1.183810 0.122436 0.0
1.153109 0.105603 0.0
1.122714 0.089288 0.0
1.093296 0.073988 0.0
1.065413 0.060080 0.0
1.039486 0.047797 0.0
1.015802 0.037209 0.0
0.994550 0.028202 0.0
0.975872 0.020471 0.0
0.959877 0.013597 0.0
0.946670 0.007159 0.0
0.936353 0.000840 0.0
0.929000 -0.005537 0.0
0.924603 -0.011968 0.0
0.923052 -0.018303 0.0
0.924124 -0.024292 0.0
0.927493 -0.029651 0.0
0.932749 -0.034129 0.0
0.939442 -0.037555 0.0
0.947119 -0.039854 0.0
0.955363 -0.041044 0.0
0.963818 -0.041217 0.0
0.972194 -0.040512 0.0
0.980274 -0.039097 0.0
0.987906 -0.037141 0.0
0.994994 -0.034808 0.0
1.001488 -0.032243 0.0
1.007373 -0.029568 0.0
1.012658 -0.026881 0.0
1.017373 -0.024258 0.0
1.021554 -0.021751 0.0
1.025245 -0.019397 0.0
1.028493 -0.017219 0.0
1.031342 -0.015225 0.0
1.033837 -0.013419 0.0
1.036017 -0.011796 0.0
1.037920 -0.010347 0.0
1.039578 -0.009061 0.0
1.041020 -0.007926 0.0
1.042274 -0.006929 0.0
1.043362 -0.006057 0.0
1.044303 -0.005299 0.0
1.045116 -0.004644 0.0
1.045814 -0.004081 0.0
1.046411 -0.003602 0.0
1.046916 -0.003200 0.0
1.047337 -0.002868 0.0
1.047680 -0.002601 0.0
1.047950 -0.002395 0.0
1.048146 -0.002245 0.0
1.048269 -0.002147 0.0
1.048314 -0.002095 0.0
1.048278 -0.002080 0.0
1.048156 -0.002085 0.0
1.000565 -0.016823 0.0
1.002907 -0.051341 0.0
1.008017 -0.088606 0.0
1.016997 -0.130654 0.0
1.032070 -0.179739 0.0
1.057407 -0.238167 0.0
1.100483 -0.307572 0.0
1.172879 -0.384010 0.0
1.303027 -0.484946 0.0
1.423383 -0.384497 0.0
1.465430 -0.274116 0.0
1.470463 -0.190809 0.0
1.466889 -0.125694 0.0
1.463614 -0.068330 0.0
1.459137 -0.012669 0.0
1.448715 0.040344 0.0
1.429897 0.087451 0.0
1.402797 0.125877 0.0
1.368775 0.153643 0.0
1.329820 0.169551 0.0
1.288261 0.173111 0.0
1.246593 0.164558 0.0
1.207282 0.144924 0.0
1.172489 0.116124 0.0
1.143744 0.080893 0.0
1.121544 0.042560 0.0
1.105100 0.004047 0.0
1.095517 -0.034183 0.0
1.097448 -0.064691 0.0
1.115288 -0.078828 0.0
1.149808 -0.070137 0.0
1.195752 -0.037362 0.0
1.239990 0.010564 0.0
1.272278 0.057464 0.0
1.293532 0.096852 0.0
1.307485 0.129337 0.0
1.315977 0.155635 0.0
1.319842 0.176248 0.0
1.319426 0.191446 0.0
1.314874 0.201366 0.0
1.306268 0.206148 0.0
1.293710 0.206037 0.0
1.277368 0.201452 0.0
1.257522 0.192985 0.0
1.234588 0.181365 0.0
1.209126 0.167381 0.0
1.181801 0.151813 0.0
1.153336 0.135392 0.0
1.124456 0.118774 0.0
1.095830 0.102546 0.0
1.068032 0.087202 0.0
1.041534 0.073100 0.0
1.016717 0.060407 0.0
0.993912 0.049058 0.0
0.973440 0.038766 0.0
0.955620 0.029116 0.0
0.940768 0.019700 0.0
0.929152 0.010232 0.0
0.920952 0.000623 0.0
0.916233 -0.009013 0.0
0.914911 -0.018385 0.0
0.916717 -0.027089 0.0
0.921207 -0.034714 0.0
0.927822 -0.040938 0.0
0.935961 -0.045578 0.0
0.945049 -0.048596 0.0
0.954580 -0.050078 0.0
0.964143 -0.050200 0.0
0.973423 -0.049186 0.0
0.982200 -0.047280 0.0
0.990332 -0.044722 0.0
0.997745 -0.041728 0.0
1.004414 -0.038487 0.0
1.010353 -0.035149 0.0
1.015599 -0.031833 0.0
1.020204 -0.028626 0.0
1.024228 -0.025588 0.0
1.027733 -0.022756 0.0
1.030778 -0.020152 0.0
1.033420 -0.017783 0.0
1.035709 -0.015646 0.0
1.037693 -0.013733 0.0
1.039410 -0.012030 0.0
1.040896 -0.010522 0.0
1.042181 -0.009193 0.0
1.043292 -0.008026 0.0
1.044250 -0.007006 0.0
1.045075 -0.006117 0.0
1.045783 -0.005346 0.0
1.046387 -0.004681 0.0
1.046898 -0.004110 0.0
1.047325 -0.003624 0.0
1.047676 -0.003216 0.0
1.047954 -0.002876 0.0
1.048165 -0.002600 0.0
1.048308 -0.002380 0.0
1.048383 -0.002210 0.0
1.048389 -0.002083 0.0
1.048324 -0.001990 0.0
1.048185 -0.001913 0.0
1.000019 -0.017407 0.0
1.000123 -0.053202 0.0
1.000538 -0.092270 0.0
1.001929 -0.137361 0.0
1.005930 -0.192106 0.0
1.016353 -0.261561 0.0
1.041987 -0.352888 0.0
1.102246 -0.471349 0.0
1.261910 -0.687418 0.0
1.373705 -0.414175 0.0
1.333440 -0.246219 0.0
1.273120 -0.163420 0.0
1.233471 -0.109859 0.0
1.217145 -0.064564 0.0
1.215530 -0.010344 0.0
1.213674 0.050296 0.0
1.203560 0.106433 0.0
1.184023 0.153532 0.0
1.155311 0.188722 0.0
1.118471 0.210267 0.0
1.075059 0.217365 0.0
1.026853 0.210177 0.0
0.975424 0.190044 0.0
0.921678 0.159543 0.0
0.866194 0.121702 0.0
0.811276 0.078869 0.0
0.762899 0.032559 0.0
0.727553 -0.017765 0.0
0.713169 -0.068656 0.0
0.726769 -0.106303 0.0
0.768379 -0.118791 0.0
0.834196 -0.100469 0.0
0.917696 -0.054067 0.0
1.002559 0.004944 0.0
1.071470 0.059208 0.0
1.122810 0.101687 0.0
1.161983 0.135620 0.0
1.191548 0.162834 0.0
1.212729 0.184095 0.0
1.226286 0.199712 0.0
1.232832 0.209860 0.0
1.232952 0.214762 0.0
1.227248 0.214773 0.0
1.216362 0.210396 0.0
1.200993 0.202257 0.0
1.181889 0.191055 0.0
1.159837 0.177516 0.0
1.135629 0.162361 0.0
1.110023 0.146291 0.0
1.083709 0.129970 0.0
1.057296 0.113989 0.0
1.031321 0.098785 0.0
1.006293 0.084567 0.0
0.982736 0.071261 0.0
0.961215 0.058556 0.0
0.942330 0.046030 0.0
0.926657 0.033311 0.0
0.914679 0.020214 0.0
0.906722 0.006798 0.0
0.902900 -0.006647 0.0
0.903078 -0.019607 0.0
0.906837 -0.031432 0.0
0.913517 -0.041541 0.0
0.922343 -0.049553 0.0
0.932555 -0.055313 0.0
0.943476 -0.058869 0.0
0.954555 -0.060415 0.0
0.965366 -0.060238 0.0
0.975608 -0.058670 0.0
0.985084 -0.056048 0.0
0.993684 -0.052686 0.0
1.001368 -0.048861 0.0
1.008148 -0.044803 0.0
1.014071 -0.040693 0.0
1.019204 -0.036667 0.0
1.023629 -0.032821 0.0
1.027428 -0.029216 0.0
1.030682 -0.025887 0.0
1.033467 -0.022851 0.0
1.035849 -0.020108 0.0
1.037888 -0.017650 0.0
1.039634 -0.015459 0.0
1.041131 -0.013518 0.0
1.042415 -0.011804 0.0
1.043517 -0.010298 0.0
1.044462 -0.008977 0.0
1.045272 -0.007823 0.0
1.045964 -0.006817 0.0
1.046553 -0.005943 0.0
1.047051 -0.005186 0.0
1.047468 -0.004533 0.0
1.047811 -0.003972 0.0
1.048086 -0.003494 0.0
1.048297 -0.003088 0.0
1.048447 -0.002748 0.0
1.048536 -0.002465 0.0
1.048566 -0.002231 0.0
1.048535 -0.002038 0.0
1.048442 -0.001878 0.0
1.048286 -0.001730 0.0
0.999386 -0.016812 0.0
0.996868 -0.051383 0.0
0.991637 -0.089274 0.0
0.983400 -0.133512 0.0
0.971971 -0.188528 0.0
0.957978 -0.261569 0.0
0.945229 -0.365766 0.0
0.949432 -0.522933 0.0
1.056140 -0.902206 0.0
1.059157 -0.204208 0.0
0.870793 -0.105857 0.0
0.731034 -0.091995 0.0
0.663475 -0.074075 0.0
0.644426 -0.064973 0.0
0.668770 -0.032664 0.0
0.707126 0.036115 0.0
0.734408 0.103446 0.0
0.747374 0.163091 0.0
0.743787 0.211461 0.0
0.722173 0.245982 0.0
0.681825 0.265410 0.0
0.622643 0.269521 0.0
0.546274 0.258498 0.0
0.458696 0.232413 0.0
0.372189 0.190822 0.0
0.302953 0.133904 0.0
0.264716 0.064138 0.0
0.264333 -0.013615 0.0
0.295316 -0.089406 0.0
0.345030 -0.148867 0.0
0.408305 -0.181111 0.0
0.485416 -0.181077 0.0
0.577699 -0.149242 0.0
0.684674 -0.091718 0.0
0.796199 -0.024566 0.0
0.893112 0.037209 0.0
0.967609 0.086428 0.0
1.025062 0.125008 0.0
1.069774 0.156027 0.0
1.103569 0.180428 0.0
1.127608 0.198560 0.0
1.142864 0.210688 0.0
1.150257 0.217159 0.0
1.150698 0.218454 0.0
1.145099 0.215168 0.0
1.134369 0.207979 0.0
1.119399 0.197615 0.0
1.101040 0.184829 0.0
1.080085 0.170385 0.0
1.057252 0.155024 0.0
1.033203 0.139397 0.0
1.008592 0.123962 0.0
0.984125 0.108885 0.0
0.960607 0.094018 0.0
0.938946 0.078981 0.0
0.920091 0.063346 0.0
0.904934 0.046827 0.0
0.894187 0.029422 0.0
0.888282 0.011451 0.0
0.887291 -0.006486 0.0
0.890826 -0.023480 0.0
0.898070 -0.038562 0.0
0.908012 -0.051032 0.0
0.919667 -0.060543 0.0
0.932190 -0.067058 0.0
0.944915 -0.070770 0.0
0.957340 -0.072017 0.0
0.969112 -0.071219 0.0
0.979998 -0.068817 0.0
0.989861 -0.065240 0.0
0.998644 -0.060877 0.0
1.006349 -0.056060 0.0
1.013025 -0.051060 0.0
1.018750 -0.046083 0.0
1.023619 -0.041280 0.0
1.027735 -0.036750 0.0
1.031203 -0.032553 0.0
1.034118 -0.028719 0.0
1.036566 -0.025253 0.0
1.038626 -0.022148 0.0
1.040361 -0.019384 0.0
1.041826 -0.016936 0.0
1.043065 -0.014777 0.0
1.044116 -0.012880 0.0
1.045009 -0.011216 0.0
1.045767 -0.009762 0.0
1.046410 -0.008492 0.0
1.046955 -0.007385 0.0
1.047414 -0.006422 0.0
1.047797 -0.005587 0.0
1.048111 -0.004863 0.0
1.048364 -0.004237 0.0
1.048559 -0.003698 0.0
1.048700 -0.003236 0.0
1.048788 -0.002839 0.0
1.048825 -0.002500 0.0
1.048810 -0.002210 0.0
1.048742 -0.001960 0.0
1.048622 -0.001743 0.0
1.048448 -0.001534 0.0
0.998775 -0.014973 0.0
0.993722 -0.045652 0.0
0.982973 -0.079025 0.0
0.965070 -0.117620 0.0
0.937303 -0.165223 0.0
0.894699 -0.228277 0.0
0.827549 -0.319158 0.0
0.717008 -0.463203 0.0
0.323901 -0.785530 0.0
-0.483007 0.285065 0.0
-0.483007 0.000000 0.0
-0.033757 -0.023192 0.0
-0.047746 -0.071894 0.0
0.016122 -0.111972 0.0
0.110357 -0.104245 0.0
0.205352 -0.025655 0.0
0.275539 0.067747 0.0
0.312045 0.149319 0.0
0.321548 0.219317 0.0
0.305556 0.275732 0.0
0.265105 0.316458 0.0
0.204132 0.338628 0.0
0.132116 0.337776 0.0
0.063318 0.309510 0.0
0.012369 0.251181 0.0
-0.010634 0.165784 0.0
-0.001859 0.061720 0.0
0.035176 -0.047848 0.0
0.087237 -0.138216 0.0
0.144011 -0.206544 0.0
0.205422 -0.248120 0.0
0.274257 -0.260015 0.0
0.353906 -0.242236 0.0
0.446435 -0.198228 0.0
0.551340 -0.134486 0.0
0.663266 -0.061710 0.0
0.767612 0.006504 0.0
0.851772 0.063318 0.0
0.916920 0.107855 0.0
0.968136 0.143589 0.0
1.007729 0.171767 0.0
1.037042 0.192912 0.0
1.057142 0.207441 0.0
1.069019 0.215854 0.0
1.073627 0.218758 0.0
1.071892 0.216853 0.0
1.064702 0.210901 0.0
1.052894 0.201710 0.0
1.037244 0.190108 0.0
1.018496 0.176882 0.0
0.997405 0.162679 0.0
0.974821 0.147876 0.0
0.951759 0.132501 0.0
0.929425 0.116254 0.0
0.909166 0.098666 0.0
0.892335 0.079346 0.0
0.880116 0.058203 0.0
0.873330 0.035579 0.0
0.872302 0.012227 0.0
0.876706 -0.010675 0.0
0.885495 -0.031615 0.0
0.897274 -0.049449 0.0
0.910765 -0.063578 0.0
0.924970 -0.073858 0.0
0.939170 -0.080467 0.0
0.952870 -0.083786 0.0
0.965746 -0.084303 0.0
0.977595 -0.082554 0.0
0.988303 -0.079075 0.0
0.997824 -0.074366 0.0
1.006165 -0.068874 0.0
1.013371 -0.062975 0.0
1.019519 -0.056970 0.0
1.024708 -0.051086 0.0
1.029046 -0.045484 0.0
1.032646 -0.040263 0.0
1.035619 -0.035480 0.0
1.038067 -0.031154 0.0
1.040082 -0.027281 0.0
1.041741 -0.023839 0.0
1.043111 -0.020797 0.0
1.044245 -0.018122 0.0
1.045189 -0.015774 0.0
1.045976 -0.013721 0.0
1.046635 -0.011927 0.0
1.047187 -0.010361 0.0
1.047648 -0.008997 0.0
1.048033 -0.007809 0.0
1.048351 -0.006775 0.0
1.048610 -0.005876 0.0
1.048817 -0.005095 0.0
1.048975 -0.004416 0.0
1.049087 -0.003827 0.0
1.049156 -0.003316 0.0
1.049182 -0.002873 0.0
1.049165 -0.002486 0.0
1.049106 -0.002149 0.0
1.049003 -0.001851 0.0
1.048855 -0.001585 0.0
1.048663 -0.001326 0.0
0.998317 -0.012064 0.0
0.991382 -0.036573 0.0
0.976596 -0.062569 0.0
0.951794 -0.091371 0.0
0.912791 -0.124701 0.0
0.851500 -0.164905 0.0
0.751116 -0.214996 0.0
0.571549 -0.277259 0.0
0.227406 -0.338362 0.0
0.000000 0.285065 0.0
-0.000000 -0.000000 0.0
0.000000 0.000000 0.0
-0.045130 -0.045831 0.0
-0.093534 -0.152797 0.0
-0.088711 -0.162478 0.0
-0.065145 -0.085983 0.0
-0.033006 0.025749 0.0
-0.008145 0.129950 0.0
-0.001353 0.222391 0.0
-0.013279 0.300577 0.0
-0.041030 0.359815 0.0
-0.077723 0.392937 0.0
-0.113603 0.391363 0.0
-0.138086 0.349204 0.0
-0.141389 0.265739 0.0
-0.118073 0.150912 0.0
-0.070282 0.020026 0.0
-0.011151 -0.102321 0.0
0.046161 -0.193117 0.0
0.099144 -0.261401 0.0
0.149734 -0.305264 0.0
0.201487 -0.323460 0.0
0.259070 -0.316022 0.0
0.326683 -0.284583 0.0
0.406383 -0.232736 0.0
0.497084 -0.166089 0.0
0.594880 -0.091259 0.0
0.690646 -0.018845 0.0
0.772351 0.043165 0.0
0.836908 0.092506 0.0
0.888196 0.131969 0.0
0.928486 0.163107 0.0
0.959016 0.186616 0.0
0.980735 0.203084 0.0
0.994491 0.213165 0.0
1.001082 0.217590 0.0
1.001274 0.217161 0.0
0.995807 0.212725 0.0
0.985423 0.205126 0.0
0.970921 0.195115 0.0
0.953243 0.183215 0.0
0.933570 0.169596 0.0
0.913373 0.154041 0.0
0.894366 0.136055 0.0
0.878356 0.115135 0.0
0.866984 0.091079 0.0
0.861446 0.064227 0.0
0.862266 0.035521 0.0
0.869168 0.006412 0.0
0.880843 -0.020939 0.0
0.895394 -0.044691 0.0
0.911194 -0.063952 0.0
0.927118 -0.078491 0.0
0.942465 -0.088497 0.0
0.956834 -0.094396 0.0
0.970017 -0.096740 0.0
0.981928 -0.096135 0.0
0.992551 -0.093194 0.0
1.001914 -0.088506 0.0
1.010070 -0.082613 0.0
1.017093 -0.075990 0.0
1.023067 -0.069038 0.0
1.028088 -0.062076 0.0
1.032261 -0.055341 0.0
1.035691 -0.048997 0.0
1.038484 -0.043144 0.0
1.040742 -0.037831 0.0
1.042557 -0.033067 0.0
1.044012 -0.028837 0.0
1.045177 -0.025107 0.0
1.046113 -0.021834 0.0
1.046865 -0.018972 0.0
1.047474 -0.016476 0.0
1.047968 -0.014301 0.0
1.048370 -0.012407 0.0
1.048697 -0.010760 0.0
1.048963 -0.009326 0.0
1.049177 -0.008079 0.0
1.049347 -0.006993 0.0
1.049477 -0.006048 0.0
1.049571 -0.005224 0.0
1.049631 -0.004505 0.0
1.049659 -0.003878 0.0
1.049655 -0.003330 0.0
1.049618 -0.002848 0.0
1.049549 -0.002424 0.0
1.049445 -0.002048 0.0
1.049307 -0.001710 0.0
1.049133 -0.001404 0.0
1.048922 -0.001103 0.0
0.998101 -0.008482 0.0
0.990311 -0.025430 0.0
0.973831 -0.042447 0.0
0.946591 -0.059452 0.0
0.904860 -0.075887 0.0
0.842395 -0.089964 0.0
0.749703 -0.096860 0.0
0.615357 -0.081483 0.0
0.435643 -0.004428 0.0
0.167484 0.149514 0.0
0.000000 0.000000 0.0
-0.000000 -0.000000 0.0
0.000000 0.000000 0.0
-0.072246 -0.074761 0.0
-0.155831 -0.159237 0.0
-0.173399 -0.095224 0.0
-0.178393 0.007846 0.0
-0.173309 0.117908 0.0
-0.167510 0.221841 0.0
-0.166782 0.312325 0.0
-0.171093 0.380127 0.0
-0.176097 0.414323 0.0
-0.175006 0.404767 0.0
-0.160495 0.345773 0.0
-0.121856 0.233835 0.0
-0.054077 0.091721 0.0
0.022152 -0.044803 0.0
0.085496 -0.159967 0.0
0.137865 -0.245153 0.0
0.182909 -0.307391 0.0
0.220112 -0.347066 0.0
0.251804 -0.365104 0.0
0.282543 -0.362700 0.0
0.318032 -0.341007 0.0
0.363397 -0.301377 0.0
0.421336 -0.246088 0.0
0.491177 -0.178897 0.0
0.569318 -0.105114 0.0
0.649174 -0.032127 0.0
0.720895 0.031521 0.0
0.779560 0.083002 0.0
0.826996 0.124349 0.0
0.864802 0.157038 0.0
0.893852 0.181892 0.0
0.914796 0.199656 0.0
0.928209 0.211095 0.0
0.934667 0.217008 0.0
0.934804 0.218209 0.0
0.929376 0.215453 0.0
0.919353 0.209312 0.0
0.906017 0.200031 0.0
0.891027 0.187443 0.0
0.876382 0.171038 0.0
0.864237 0.150210 0.0
0.856592 0.124635 0.0
0.854924 0.094619 0.0
0.859885 0.061265 0.0
0.871172 0.026376 0.0
0.887243 -0.007416 0.0
0.905661 -0.037205 0.0
0.924365 -0.061681 0.0
0.942164 -0.080560 0.0
0.958443 -0.094086 0.0
0.972960 -0.102765 0.0