# vtk DataFile Version 3.0
Scalar Field
ASCII
DATASET RECTILINEAR_GRID
DIMENSIONS 100 26 1
X_COORDINATES 100 double
0.050000 0.150000 0.250000 0.350000 0.450000 0.550000 0.650000 0.750000 0.850000 0.950000 1.050000 1.150000 1.250000 1.350000 1.450000 1.550000 1.650000 1.750000 1.850000 1.950000 2.050000 2.150000 2.250000 2.350000 2.450000 2.550000 2.650000 2.750000 2.850000 2.950000 3.050000 3.150000 3.250000 3.350000 3.450000 3.550000 3.650000 3.750000 3.850000 3.950000 4.050000 4.150000 4.250000 4.350000 4.450000 4.550000 4.650000 4.750000 4.850000 4.950000 5.050000 5.150000 5.250000 5.350000 5.450000 5.550000 5.650000 5.750000 5.850000 5.950000 6.050000 6.150000 6.250000 6.350000 6.450000 6.550000 6.650000 6.750000 6.850000 6.950000 7.050000 7.150000 7.250000 7.350000 7.450000 7.550000 7.650000 7.750000 7.850000 7.950000 8.050000 8.150000 8.250000 8.350000 8.450000 8.550000 8.650000 8.750000 8.850000 8.950000 9.050000 9.150000 9.250000 9.350000 9.450000 9.550000 9.650000 9.750000 9.850000 9.950000 
Y_COORDINATES 26 double
0.050000 0.150000 0.250000 0.350000 0.450000 0.550000 0.650000 0.750000 0.850000 0.950000 1.050000 1.150000 1.250000 1.350000 1.450000 1.550000 1.650000 1.750000 1.850000 1.950000 2.050000 2.150000 2.250000 2.350000 2.450000 2.550000 
Z_COORDINATES 1 double
0.0
POINT_DATA 2600
SCALARS Skalarfeld double 1
LOOKUP_TABLE default
0.163997
0.160051
0.151688
0.138517
0.120328
0.097069
0.068928
0.036458
0.000700
-0.036790
-0.074065
-0.109090
-0.140081
-0.165742
-0.185349
-0.198731
-0.206185
-0.208366
-0.206179
-0.200683
-0.193001
-0.184242
-0.175413
-0.167319
-0.160454
-0.154905
-0.150325
-0.146027
-0.141076
-0.134596
-0.126069
-0.115349
-0.102644
-0.088424
-0.073315
-0.057976
-0.043014
-0.028920
-0.016033
-0.004529
0.005574
0.014398
0.022179
0.029230
0.035891
0.042445
0.049181
0.056240
0.063297
0.069830
0.075139
0.078409
0.078837
0.075811
0.069152
0.059343
0.047603
0.035692
0.025422
0.018140
0.014651
0.014584
0.017143
0.021301
0.026021
0.030442
0.033988
0.036421
0.037809
0.038464
0.038820
0.039296
0.040156
0.041386
0.043143
0.045073
0.046893
0.048430
0.049583
0.050287
0.050477
0.050059
0.048907
0.046899
0.043972
0.040192
0.035792
0.031148
0.026660
0.022646
0.019302
0.016349
0.013327
0.009640
0.004641
-0.002280
-0.011641
-0.023895
-0.039584
-0.065206
0.167470
0.164382
0.156239
0.143000
0.124498
0.100628
0.071506
0.037656
0.000171
-0.039216
-0.078265
-0.114681
-0.146547
-0.172557
-0.192049
-0.204942
-0.211620
-0.212818
-0.209513
-0.202842
-0.194017
-0.184248
-0.174653
-0.166147
-0.159293
-0.154174
-0.150338
-0.146892
-0.142792
-0.136962
-0.128809
-0.118191
-0.105368
-0.090882
-0.075426
-0.059713
-0.044386
-0.029957
-0.016776
-0.005023
0.005287
0.014279
0.022195
0.029353
0.036111
0.042825
0.049648
0.056486
0.063137
0.069151
0.073894
0.076628
0.076609
0.073248
0.066335
0.056270
0.044179
0.031805
0.021131
0.013806
0.010325
0.010420
0.013287
0.017847
0.023013
0.027887
0.031873
0.034724
0.036514
0.037556
0.038280
0.039095
0.040266
0.041896
0.043600
0.045319
0.046871
0.048132
0.049029
0.049513
0.049535
0.049008
0.047813
0.045817
0.042938
0.039209
0.034824
0.030139
0.025624
0.021722
0.018455
0.015631
0.012820
0.009438
0.004856
-0.001504
-0.010100
-0.021270
-0.035296
-0.057897
0.176549
0.173671
0.165619
0.152223
0.133175
0.108177
0.077143
0.040466
-0.000683
-0.044197
-0.087099
-0.126468
-0.160119
-0.186772
-0.205938
-0.217740
-0.222757
-0.221887
-0.216249
-0.207129
-0.195917
-0.184017
-0.172792
-0.163406
-0.156607
-0.152488
-0.150381
-0.148997
-0.146881
-0.142512
-0.135184
-0.124792
-0.111722
-0.096672
-0.080471
-0.063941
-0.047793
-0.032580
-0.018670
-0.006248
0.004665
0.014194
0.022570
0.030094
0.037088
0.043848
0.050573
0.057138
0.063302
0.068642
0.072595
0.074517
0.073739
0.069688
0.062096
0.051252
0.038182
0.024617
0.012700
0.004453
0.000802
0.001143
0.004602
0.010023
0.016233
0.022258
0.027449
0.031518
0.034498
0.036647
0.038323
0.039844
0.041405
0.043057
0.044675
0.046122
0.047299
0.048139
0.048615
0.048717
0.048423
0.047672
0.046349
0.044314
0.041463
0.037789
0.033442
0.028731
0.024083
0.019915
0.016590
0.013989
0.011603
0.008903
0.005316
0.000324
-0.006464
-0.015291
-0.026299
-0.044252
0.190832
0.188039
0.180065
0.166532
0.146847
0.120324
0.086443
0.045256
-0.002043
-0.052733
-0.102178
-0.146256
-0.182480
-0.209799
-0.228118
-0.237940
-0.240161
-0.235922
-0.226514
-0.213458
-0.198386
-0.182992
-0.169049
-0.158204
-0.151593
-0.149380
-0.150498
-0.152863
-0.154053
-0.152069
-0.145961
-0.135763
-0.122126
-0.106030
-0.088545
-0.070658
-0.053183
-0.036726
-0.021677
-0.008233
0.003583
0.013884
0.022885
0.030860
0.038102
0.044880
0.051391
0.057689
0.063332
0.067906
0.070928
0.071884
0.070208
0.065357
0.057012
0.045337
0.031199
0.016218
0.002567
-0.007530
-0.012113
-0.011608
-0.007489
-0.000959
0.006687
0.014356
0.021293
0.027116
0.031766
0.035406
0.038294
0.040675
0.042718
0.044487
0.045950
0.047038
0.047825
0.048173
0.048131
0.047727
0.046989
0.045903
0.044385
0.042305
0.039548
0.036076
0.031979
0.027497
0.022988
0.018838
0.015334
0.012773
0.010900
0.009068
0.006785
0.003610
-0.000783
-0.006570
-0.013818
-0.025673
0.210156
0.207491
0.199780
0.186388
0.166287
0.138138
0.100577
0.052846
-0.004116
-0.066849
-0.126659
-0.177337
-0.216484
-0.243901
-0.260294
-0.266772
-0.264687
-0.255404
-0.240504
-0.221759
-0.201028
-0.180365
-0.162193
-0.149027
-0.142825
-0.143972
-0.150722
-0.159518
-0.166108
-0.167560
-0.162942
-0.152611
-0.137733
-0.119785
-0.100213
-0.080240
-0.060811
-0.042589
-0.025982
-0.011187
0.001776
0.013017
0.022747
0.031230
0.038743
0.045519
0.051681
0.057470
0.062465
0.066096
0.067965
0.067769
0.065125
0.059590
0.050827
0.038853
0.024294
0.008518
-0.006454
-0.018320
-0.025112
-0.025203
-0.020805
-0.013360
-0.004315
0.005079
0.013914
0.021665
0.028146
0.033405
0.037611
0.040959
0.043607
0.045641
0.047065
0.047835
0.047911
0.047555
0.046909
0.045873
0.044557
0.043033
0.041283
0.039211
0.036697
0.033665
0.030137
0.026264
0.022308
0.018592
0.015410
0.012940
0.011346
0.010389
0.009447
0.008173
0.006322
0.003788
0.000589
-0.004443
0.234279
0.231890
0.224869
0.212288
0.192537
0.163277
0.121614
0.064923
-0.007061
-0.090828
-0.166477
-0.225007
-0.266094
-0.291877
-0.304413
-0.305565
-0.297185
-0.280889
-0.258544
-0.232094
-0.203700
-0.175578
-0.150970
-0.133957
-0.128147
-0.134523
-0.150308
-0.169577
-0.184981
-0.191166
-0.188110
-0.176927
-0.159726
-0.138785
-0.116084
-0.093143
-0.071041
-0.050485
-0.031882
-0.015411
-0.001075
0.011256
0.021802
0.030834
0.038613
0.045315
0.050954
0.055340
0.059207
0.061498
0.061761
0.060132
0.056568
0.050775
0.042356
0.031112
0.017344
0.002050
-0.013072
-0.025902
-0.034460
-0.036682
-0.032584
-0.024886
-0.015010
-0.004331
0.006080
0.015534
0.023688
0.030464
0.035941
0.040263
0.043568
0.045936
0.047373
0.047840
0.047335
0.045976
0.044045
0.042210
0.040228
0.038244
0.036332
0.034421
0.032376
0.030076
0.027466
0.024597
0.021623
0.018776
0.016312
0.014440
0.013271
0.012862
0.013127
0.013594
0.014116
0.014681
0.015407
0.017068
0.262687
0.260817
0.255185
0.244597
0.226810
0.198138
0.153118
0.085032
-0.010811
-0.134344
-0.232239
-0.296197
-0.334921
-0.355546
-0.361428
-0.354854
-0.338167
-0.313012
-0.281173
-0.244898
-0.206757
-0.169633
-0.135763
-0.112112
-0.105588
-0.118357
-0.146196
-0.180247
-0.209424
-0.223033
-0.221422
-0.208452
-0.187725
-0.162663
-0.135898
-0.109249
-0.083897
-0.060559
-0.039618
-0.021219
-0.005335
0.008189
0.019593
0.029153
0.037098
0.043504
0.048236
0.051018
0.051611
0.051637
0.049835
0.046837
0.042919
0.037753
0.030768
0.021505
0.009912
-0.003427
-0.017224
-0.029654
-0.038761
-0.042977
-0.040390
-0.033386
-0.023590
-0.012462
-0.001195
0.009368
0.018730
0.026675
0.033178
0.038313
0.042167
0.044781
0.046121
0.046134
0.044855
0.042504
0.039482
0.036225
0.033491
0.031125
0.029219
0.027690
0.026373
0.025091
0.023713
0.022186
0.020555
0.018947
0.017550
0.016566
0.016167
0.016462
0.017497
0.019418
0.021946
0.025192
0.029380
0.036927
0.294428
0.293386
0.290078
0.283205
0.270102
0.245731
0.200990
0.120898
-0.014903
-0.220234
-0.339932
-0.394349
-0.420507
-0.431415
-0.428174
-0.412881
-0.387326
-0.352032
-0.309231
-0.261602
-0.212163
-0.164575
-0.122761
-0.088443
-0.078167
-0.095906
-0.134887
-0.183342
-0.227746
-0.255217
-0.256323
-0.241535
-0.217095
-0.187858
-0.157095
-0.126850
-0.098349
-0.072296
-0.049054
-0.028752
-0.011352
0.003307
0.015464
0.025365
0.033127
0.038612
0.041460
0.041431
0.038848
0.034648
0.030842
0.027421
0.024299
0.020894
0.016450
0.010290
0.002059
-0.008059
-0.019216
-0.029968
-0.038580
-0.043512
-0.043347
-0.037559
-0.028720
-0.018099
-0.006895
0.003957
0.013831
0.022379
0.029460
0.035050
0.039155
0.041740
0.042716
0.042020
0.039752
0.036270
0.032149
0.027998
0.024438
0.021808
0.020096
0.019169
0.018811
0.018785
0.018879
0.018943
0.018911
0.018806
0.018736
0.018865
0.019392
0.020513
0.022415
0.025231
0.029297
0.034647
0.041602
0.053808
0.327986
0.328085
0.328085
0.326936
0.322220
0.308558
0.273757
0.189960
-0.013472
-0.404534
-0.502055
-0.502912
-0.503065
-0.504065
-0.494126
-0.474448
-0.441193
-0.396441
-0.343420
-0.285318
-0.225345
-0.167907
-0.118838
-0.083114
-0.066458
-0.084954
-0.126886
-0.179381
-0.230044
-0.267138
-0.278781
-0.264124
-0.238121
-0.206913
-0.174180
-0.142054
-0.111770
-0.084049
-0.059292
-0.037682
-0.019240
-0.003865
0.008598
0.018229
0.024846
0.027999
0.027361
0.023337
0.017277
0.010851
0.006172
0.003601
0.002430
0.001778
0.000721
-0.001568
-0.005667
-0.011731
-0.019332
-0.027437
-0.034602
-0.039350
-0.040574
-0.036873
-0.029750
-0.020490
-0.010244
0.000031
0.009629
0.018092
0.025163
0.030708
0.034629
0.036802
0.037082
0.035422
0.032018
0.027386
0.022268
0.017409
0.013369
0.010669
0.009343
0.009215
0.010013
0.011427
0.013162
0.014971
0.016687
0.018235
0.019641
0.021022
0.022570
0.024532
0.027191
0.030843
0.035828
0.042601
0.051513
0.066959
0.361282
0.362720
0.366699
0.372843
0.380045
0.385051
0.378056
0.327218
0.088643
-0.746744
-0.687217
-0.566485
-0.544522
-0.544941
-0.542949
-0.524170
-0.487752
-0.438357
-0.380740
-0.318950
-0.256291
-0.197440
-0.148073
-0.113834
-0.103447
-0.114268
-0.143415
-0.183007
-0.223830
-0.256266
-0.272441
-0.265543
-0.241706
-0.212301
-0.181098
-0.150131
-0.120591
-0.093245
-0.068604
-0.047000
-0.028612
-0.013514
-0.001773
0.006367
0.010382
0.009765
0.004771
-0.003072
-0.011424
-0.018290
-0.021939
-0.022370
-0.020594
-0.017726
-0.014834
-0.012852
-0.012500
-0.014172
-0.017787
-0.022705
-0.027808
-0.031792
-0.033562
-0.032021
-0.026802
-0.019442
-0.010843
-0.001885
0.006706
0.014400
0.020844
0.025796
0.029051
0.030398
0.029655
0.026808
0.022171
0.016412
0.010403
0.004974
0.000716
-0.001869
-0.002625
-0.001767
0.000363
0.003371
0.006867
0.010508
0.014034
0.017285
0.020212
0.022882
0.025471
0.028247
0.031554
0.035788
0.041398
0.048880
0.058832
0.076078
0.391891
0.394624
0.402498
0.416016
0.436023
0.463570
0.499169
0.538972
0.621089
-0.062828
-0.617024
-0.546830
-0.543640
-0.547267
-0.553217
-0.540896
-0.509512
-0.465329
-0.413926
-0.361430
-0.310568
-0.264680
-0.228154
-0.204357
-0.191634
-0.186476
-0.189631
-0.202473
-0.219858
-0.235706
-0.243956
-0.241105
-0.224977
-0.200677
-0.174333
-0.147665
-0.121701
-0.097207
-0.074821
-0.055068
-0.038359
-0.025030
-0.015471
-0.010284
-0.010188
-0.015342
-0.024506
-0.035083
-0.044271
-0.050236
-0.051459
-0.048644
-0.043059
-0.036046
-0.028834
-0.022448
-0.017682
-0.015051
-0.014707
-0.016327
-0.019100
-0.021909
-0.023636
-0.023402
-0.020395
-0.015228
-0.008687
-0.001554
0.005474
0.011839
0.017116
0.020973
0.023110
0.023241
0.021167
0.016933
0.010969
0.004073
-0.002782
-0.008709
-0.013077
-0.015398
-0.015418
-0.013396
-0.009760
-0.005013
0.000343
0.005863
0.011202
0.016126
0.020531
0.024440
0.028008
0.031508
0.035314
0.039879
0.045719
0.053404
0.063561
0.081163
0.417477
0.421173
0.431922
0.450816
0.479967
0.523095
0.586736
0.682143
0.814618
0.851077
0.000000
-0.541666
-0.536501
-0.529735
-0.528294
-0.521987
-0.500012
-0.469409
-0.437934
-0.409694
-0.385309
-0.363606
-0.343517
-0.324801
-0.300636
-0.274835
-0.251849
-0.233483
-0.221432
-0.214219
-0.208399
-0.200732
-0.189525
-0.173261
-0.153675
-0.133477
-0.113335
-0.093891
-0.075841
-0.059875
-0.046633
-0.036735
-0.030917
-0.030089
-0.034916
-0.044871
-0.057662
-0.069987
-0.078989
-0.082992
-0.080741
-0.073767
-0.063652
-0.052016
-0.040272
-0.029537
-0.020628
-0.014087
-0.010162
-0.008731
-0.009232
-0.010745
-0.012234
-0.012853
-0.011589
-0.008492
-0.004097
0.000984
0.006133
0.010801
0.014523
0.016896
0.017544
0.016129
0.012454
0.006639
-0.000774
-0.008878
-0.016621
-0.023056
-0.027505
-0.029484
-0.028633
-0.025286
-0.019983
-0.013364
-0.006063
0.001362
0.008479
0.014996
0.020767
0.025792
0.030207
0.034281
0.038397
0.043031
0.048729
0.056089
0.065763
0.082414
0.436308
0.440442
0.452437
0.473417
0.505414
0.551499
0.615240
0.698471
0.795737
0.887536
0.803513
0.000000
-0.520846
-0.505191
-0.490174
-0.479513
-0.468817
-0.459027
-0.455284
-0.459487
-0.468182
-0.474241
-0.470033
-0.446290
-0.406718
-0.359247
-0.309871
-0.263501
-0.224227
-0.193890
-0.171895
-0.156095
-0.143887
-0.133083
-0.121247
-0.108322
-0.095194
-0.082209
-0.070015
-0.059388
-0.051146
-0.046181
-0.045563
-0.050382
-0.060970
-0.075898
-0.091957
-0.105468
-0.113769
-0.114558
-0.108143
-0.096349
-0.081233
-0.064737
-0.048470
-0.033630
-0.021026
-0.011150
-0.004236
-0.000237
0.001244
0.000962
-0.000126
-0.001104
-0.001286
0.000022
0.002417
0.005473
0.008672
0.011494
0.013457
0.014108
0.013014
0.009808
0.004323
-0.003244
-0.012246
-0.021680
-0.030415
-0.037432
-0.041993
-0.043582
-0.041766
-0.036976
-0.029889
-0.021303
-0.012006
-0.002683
0.006145
0.014135
0.021117
0.027080
0.032157
0.036610
0.040819
0.045254
0.050457
0.057017
0.065559
0.080124
0.447601
0.451634
0.463241
0.483194
0.512724
0.553377
0.606680
0.671382
0.734705
0.758386
0.719489
0.607030
0.000000
-0.480310
-0.455430
-0.437455
-0.434190
-0.442154
-0.464851
-0.501212
-0.541812
-0.572217
-0.577274
-0.544832
-0.489349
-0.420739
-0.348586
-0.279939
-0.219915
-0.171435
-0.135364
-0.110778
-0.095329
-0.085976
-0.079780
-0.074073
-0.068081
-0.061972
-0.056309
-0.051896
-0.049693
-0.050863
-0.056750
-0.068403
-0.085518
-0.105660
-0.124850
-0.139176
-0.146112
-0.143087
-0.131865
-0.114881
-0.094656
-0.073433
-0.052979
-0.034530
-0.018848
-0.006329
0.002880
0.008848
0.011895
0.012649
0.011973
0.010778
0.009810
0.009593
0.010278
0.011532
0.012915
0.013945
0.014129
0.012981
0.010031
0.004909
-0.002510
-0.011944
-0.022650
-0.033533
-0.043373
-0.051060
-0.055774
-0.056944
-0.054124
-0.047849
-0.038951
-0.028393
-0.017129
-0.005976
0.004447
0.013750
0.021750
0.028440
0.033961
0.038575
0.042646
0.046624
0.051019
0.056373
0.063250
0.074880
0.451549
0.455069
0.465133
0.482160
0.506699
0.538986
0.577767
0.618290
0.647675
0.640270
0.577971
0.494570
0.334503
0.000000
-0.428957
-0.402485
-0.403932
-0.422017
-0.462579
-0.524361
-0.593035
-0.643188
-0.644898
-0.601145
-0.530992
-0.446807
-0.359328
-0.276525
-0.203738
-0.143973
-0.098364
-0.066589
-0.047058
-0.037108
-0.033633
-0.033394
-0.033516
-0.033733
-0.034424
-0.036421
-0.040829
-0.049052
-0.062547
-0.081997
-0.106186
-0.131665
-0.153843
-0.168637
-0.173607
-0.166100
-0.149819
-0.127746
-0.102801
-0.077453
-0.053544
-0.032279
-0.014325
0.000050
0.010827
0.018150
0.022324
0.023879
0.023576
0.022276
0.020729
0.019523
0.018920
0.018730
0.018588
0.018038
0.016585
0.013715
0.008942
0.001910
-0.007449
-0.018766
-0.031208
-0.043589
-0.054592
-0.062998
-0.067891
-0.068625
-0.064827
-0.057136
-0.046525
-0.034123
-0.021042
-0.008236
0.003586
0.013985
0.022771
0.029952
0.035687
0.040239
0.043957
0.047254
0.050584
0.054418
0.059225
0.067294
0.449092
0.451887
0.459764
0.472740
0.490619
0.512509
0.535898
0.555150
0.559395
0.531098
0.452738
0.316180
0.174435
-0.228547
-0.427336
-0.367130
-0.369525
-0.396053
-0.450887
-0.528631
-0.610326
-0.664735
-0.656812
-0.606938
-0.529635
-0.438725
-0.345342
-0.257351
-0.179680
-0.114950
-0.064185
-0.027329
-0.003448
0.009209
0.013182
0.011483
0.006235
0.000928
-0.005307
-0.013433
-0.024683
-0.040559
-0.062328
-0.089955
-0.121174
-0.151653
-0.176358
-0.191155
-0.192986
-0.180886
-0.159916
-0.133477
-0.104779
-0.076401
-0.050160
-0.027155
-0.007907
0.007467
0.019086
0.027187
0.032091
0.034250
0.034308
0.033047
0.031212
0.029370
0.027891
0.026664
0.025367
0.023558
0.020728
0.016345
0.009919
0.001125
-0.010041
-0.023127
-0.037211
-0.051021
-0.063138
-0.072234
-0.077295
-0.077586
-0.072914
-0.063991
-0.051912
-0.037948
-0.023353
-0.009200
0.003716
0.014915
0.024204
0.031615
0.037329
0.041616
0.044805
0.047258
0.049354
0.051468
0.053946
0.058020
0.441549
0.443495
0.448880
0.457424
0.468446
0.480465
0.490539
0.493335
0.480072
0.437700
0.349285
0.192516
-0.079485
-0.631529
-0.487543
-0.369936
-0.353773
-0.382884
-0.442563
-0.521308
-0.598858
-0.636733
-0.620016
-0.567710
-0.491692
-0.404101
-0.314759
-0.230517
-0.155513
-0.091789
-0.040005
-0.000145
0.028066
0.045311
0.052867
0.052623
0.046228
0.038277
0.027887
0.014290
-0.003606
-0.027101
-0.056909
-0.092059
-0.129300
-0.163648
-0.189818
-0.203840
-0.200864
-0.185130
-0.160592
-0.131160
-0.100219
-0.070328
-0.043176
-0.019688
-0.000213
0.015286
0.027052
0.035411
0.040705
0.043327
0.043792
0.042753
0.040902
0.038786
0.036820
0.034967
0.032916
0.030220
0.026352
0.020763
0.012971
0.002688
-0.010020
-0.024623
-0.040117
-0.055147
-0.068205
-0.077868
-0.083038
-0.082899
-0.077519
-0.067652
-0.054478
-0.039377
-0.023715
-0.008661
0.004926
0.016538
0.025991
0.033342
0.038802
0.042649
0.045186
0.046716
0.047527
0.047871
0.047939
0.047799
0.430464
0.431574
0.434543
0.438926
0.443817
0.447556
0.447309
0.438538
0.414481
0.365752
0.280040
0.141687
-0.068205
-0.327527
-0.360715
-0.342968
-0.347824
-0.379138
-0.432226
-0.496320
-0.549447
-0.564192
-0.544677
-0.497131
-0.430689
-0.354676
-0.276832
-0.202699
-0.135719
-0.077629
-0.028960
0.010467
0.041030
0.062830
0.075679
0.080163
0.078814
0.071740
0.059224
0.041448
0.017958
-0.011964
-0.048234
-0.088942
-0.130081
-0.166270
-0.192084
-0.203445
-0.196652
-0.178020
-0.151442
-0.120854
-0.089545
-0.059888
-0.033351
-0.010650
0.008033
0.022859
0.034162
0.042325
0.047714
0.050677
0.051610
0.051013
0.049452
0.047423
0.045369
0.043286
0.040876
0.037680
0.033150
0.026726
0.017936
0.006534
-0.007347
-0.023101
-0.039653
-0.055577
-0.069295
-0.079317
-0.084488
-0.083954
-0.078068
-0.067602
-0.053787
-0.038075
-0.021906
-0.006511
0.007221
0.018778
0.028000
0.034979
0.039957
0.043221
0.045047
0.045670
0.045276
0.043977
0.041785
0.037526
0.417364
0.417731
0.418589
0.419437
0.419333
0.416703
0.409102
0.392954
0.363379
0.314210
0.238376
0.129361
-0.013283
-0.166433
-0.245097
-0.282099
-0.312673
-0.349978
-0.394863
-0.439565
-0.468664
-0.474076
-0.456193
-0.417809
-0.364736
-0.303465
-0.239733
-0.177897
-0.120843
-0.070187
-0.026586
0.009912
0.039521
0.062416
0.078656
0.089208
0.095962
0.092584
0.080530
0.061130
0.034636
0.001056
-0.038646
-0.081754
-0.123769
-0.159172
-0.182760
-0.189657
-0.180121
-0.160156
-0.133502
-0.103826
-0.074093
-0.046354
-0.021807
-0.000973
0.016098
0.029636
0.040010
0.047623
0.052847
0.056006
0.057410
0.057416
0.056441
0.054888
0.053163
0.051234
0.048838
0.045520
0.040716
0.033855
0.024478
0.012383
-0.002237
-0.018708
-0.035894
-0.052316
-0.066350
-0.076468
-0.081493
-0.080610
-0.074418
-0.063696
-0.049708
-0.033945
-0.017886
-0.002775
0.010506
0.021486
0.030050
0.036340
0.040628
0.043207
0.044324
0.044148
0.042758
0.040130
0.036092
0.028301
0.403597
0.403357
0.402504
0.400560
0.396662
0.389459
0.376990
0.356605
0.324984
0.278383
0.213287
0.127895
0.025477
-0.080598
-0.159906
-0.215241
-0.259059
-0.299325
-0.337557
-0.369669
-0.388137
-0.390949
-0.376861
-0.347576
-0.306775
-0.258858
-0.207978
-0.157507
-0.109852
-0.066506
-0.028224
0.004759
0.032503
0.055192
0.073032
0.087455
0.095549
0.095400
0.086557
0.069057
0.043187
0.009702
-0.029600
-0.071389
-0.110899
-0.142663
-0.161857
-0.163753
-0.153394
-0.134100
-0.109410
-0.082536
-0.055985
-0.031442
-0.009853
0.008410
0.023360
0.035242
0.044412
0.051254
0.056124
0.059327
0.061124
0.061772
0.061549
0.060840
0.059791
0.058365
0.056335
0.053254
0.048551
0.041650
0.032105
0.019754
0.004843
-0.011899
-0.029286
-0.045800
-0.059794
-0.069736
-0.074463
-0.073259
-0.066902
-0.056199
-0.042444
-0.027156
-0.011815
0.002370
0.014586
0.024451
0.031936
0.037245
0.040681
0.042534
0.043016
0.042231
0.040168
0.036688
0.031476
0.021341
0.390275
0.389564
0.387402
0.383376
0.376757
0.366456
0.350983
0.328458
0.296719
0.253618
0.197592
0.128667
0.050002
-0.030782
-0.101172
-0.158468
-0.205754
-0.246163
-0.280434
-0.306685
-0.321782
-0.324434
-0.314140
-0.292103
-0.260796
-0.223281
-0.182602
-0.141372
-0.101581
-0.064570
-0.031112
-0.001550
0.024066
0.045855
0.064113
0.078379
0.087027
0.088724
0.082574
0.068080
0.045261
0.015007
-0.020528
-0.057766
-0.091965
-0.117981
-0.131521
-0.131172
-0.121300
-0.104314
-0.083073
-0.060185
-0.037681
-0.016926
0.001317
0.016754
0.029413
0.039517
0.047385
0.053364
0.057780
0.060918
0.063008
0.064247
0.064812
0.065128
0.064947
0.064286
0.062915
0.060384
0.056118
0.049538
0.040212
0.028007
0.013215
-0.003393
-0.020592
-0.036839
-0.050482
-0.059999
-0.064265
-0.062717
-0.056247
-0.045726
-0.032500
-0.018118
-0.004034
0.008626
0.019189
0.027430
0.033455
0.037553
0.040051
0.041218
0.041215
0.040085
0.037749
0.034004
0.028471
0.017668
0.378254
0.377193
0.374074
0.368565
0.360084
0.347793
0.330594
0.307191
0.276216
0.236483
0.187405
0.129581
0.065462
-0.000369
-0.061810
-0.115809
-0.162117
-0.201268
-0.233196
-0.256894
-0.270946
-0.274378
-0.267230
-0.250522
-0.226076
-0.196157
-0.163078
-0.128907
-0.095297
-0.063427
-0.034043
-0.007537
0.015945
0.036394
0.053911
0.067546
0.076369
0.079298
0.075391
0.064034
0.045189
0.019749
-0.010153
-0.041105
-0.068816
-0.088958
-0.098132
-0.097814
-0.089719
-0.075866
-0.058521
-0.039770
-0.021269
-0.004158
0.010904
0.023655
0.034120
0.042500
0.049090
0.054207
0.058151
0.061180
0.063500
0.065268
0.066687
0.067853
0.068578
0.068809
0.068277
0.066516
0.062938
0.056962
0.048164
0.036430
0.022083
0.005927
-0.010784
-0.026490
-0.039535
-0.048415
-0.052020
-0.050061
-0.043446
-0.033152
-0.020619
-0.007439
0.004970
0.015611
0.024020
0.030204
0.034468
0.037211
0.038773
0.039375
0.039104
0.037934
0.035748
0.032340
0.027369
0.017740
0.368174
0.366852
0.363048
0.356517
0.346815
0.333306
0.315194
0.291592
0.261643
0.224713
0.180679
0.130254
0.075282
0.018740
-0.035795
-0.085734
-0.129767
-0.167250
-0.197586
-0.220004
-0.233721
-0.238053
-0.233287
-0.220346
-0.200703
-0.176147
-0.148531
-0.119549
-0.090597
-0.062714
-0.036595
-0.012646
0.008927
0.028021
0.044479
0.057542
0.066495
0.070448
0.068545
0.060194
0.045363
0.024898
0.000750
-0.024091
-0.046052
-0.061781
-0.069410
-0.069648
-0.063466
-0.052454
-0.038431
-0.023110
-0.007898
0.006204
0.018599
0.029046
0.037572
0.044386
0.049788
0.054098
0.057602
0.060537
0.063076
0.065329
0.067486
0.069361
0.070924
0.072037
0.072384
0.071474
0.068708
0.063496
0.055412
0.044353
0.030655
0.015148
-0.000894
-0.015889
-0.028178
-0.036292
-0.038942
-0.036520
-0.029681
-0.019576
-0.007770
0.004080
0.014589
0.022907
0.028827
0.032661
0.034977
0.036315
0.037024
0.037241
0.036945
0.036027
0.034348
0.031771
0.028106
0.021212
0.360510
0.358964
0.354655
0.347434
0.336961
0.322746
0.304199
0.280702
0.251707
0.216888
0.176328
0.130717
0.081487
0.030762
-0.018982
-0.065569
-0.107408
-0.143366
-0.172550
-0.194208
-0.207782
-0.212838
-0.209745
-0.199362
-0.182958
-0.162049
-0.138202
-0.112865
-0.087257
-0.062304
-0.038648
-0.016689
0.003340
0.021284
0.036869
0.049512
0.058614
0.063418
0.063157
0.057283
0.045758
0.029341
0.009746
-0.010485
-0.028449
-0.041587
-0.048521
-0.049194
-0.044365
-0.035332
-0.023622
-0.010716
0.002138
0.014030
0.024407
0.033047
0.039994
0.045481
0.049840
0.053425
0.056542
0.059421
0.062208
0.064945
0.067590
0.070107
0.072409
0.074305
0.075449
0.075337
0.073359
0.068919
0.061584
0.051248
0.038253
0.023441
0.008113
-0.006122
-0.017570
-0.024735
-0.026537
-0.023554
-0.016426
-0.006442
0.004715
0.015324
0.024007
0.030039
0.033455
0.034897
0.035239
0.035211
0.035181
0.035186
0.035064
0.034596
0.033627
0.032145
0.030163
0.026995
0.355674
0.353807
0.349074
0.341392
0.330459
0.315866
0.297147
0.273837
0.245563
0.212154
0.173781
0.131085
0.085252
0.037966
-0.008803
-0.053135
-0.093389
-0.128243
-0.156655
-0.177841
-0.191312
-0.196849
-0.194821
-0.186042
-0.171665
-0.153044
-0.131582
-0.108579
-0.085140
-0.062120
-0.040124
-0.019545
-0.000623
0.016488
0.031494
0.043899
0.053178
0.058634
0.059542
0.055365
0.046042
0.032254
0.015542
-0.001848
-0.017421
-0.029003
-0.035368
-0.036228
-0.032175
-0.024324
-0.014026
-0.002616
0.008757
0.019242
0.028316
0.035768
0.041646
0.046194
0.049767
0.052758
0.055520
0.058333
0.061327
0.064367
0.067466
0.070541
0.073458
0.075990
0.077774
0.078304
0.076969
0.073168
0.066459
0.056727
0.044312
0.030069
0.015330
0.001744
-0.008956
-0.015219
-0.016455
-0.013049
-0.005725
0.004149
0.014830
0.024551
0.031920
0.036255
0.037730
0.037216
0.035857
0.034590
0.033871
0.033707
0.033794
0.033693
0.033404
0.032959
0.032620
0.033378
0.354268
0.351481
0.346344
0.338392
0.327243
0.312500
0.293749
0.270595
0.242739
0.210071
0.172787
0.131489
0.087245
0.041551
-0.003826
-0.047078
-0.086559
-0.120876
-0.148930
-0.169940
-0.183432
-0.189234
-0.187747
-0.179759
-0.166364
-0.148839
-0.128505
-0.106592
-0.084154
-0.062017
-0.040775
-0.020828
-0.002447
0.014131
0.028728
0.041060
0.050540
0.056451
0.058041
0.054744
0.046464
0.033850
0.018389
0.002225
-0.012324
-0.023377
-0.029519
-0.030471
-0.026791
-0.019503
-0.009863
0.000868
0.011596
0.021497
0.030059
0.037068
0.042565
0.046784
0.050074
0.052828
0.055403
0.058041
0.060876
0.064110
0.067546
0.071023
0.074366
0.077330
0.079543
0.080493
0.079567
0.076155
0.069799
0.060370
0.048204
0.034176
0.019659
0.006356
-0.004005
-0.010090
-0.011251
-0.007764
-0.000469
0.009252
0.019676
0.029057
0.036005
0.039822
0.040666
0.039422
0.037298
0.035324
0.034033
0.033429
0.033267
0.033384
0.033496
0.033672
0.034332
0.037917
