# vtk DataFile Version 3.0
Vector Field
ASCII
DATASET RECTILINEAR_GRID
DIMENSIONS 100 26 1
X_COORDINATES 100 double
0.050000 0.150000 0.250000 0.350000 0.450000 0.550000 0.650000 0.750000 0.850000 0.950000 1.050000 1.150000 1.250000 1.350000 1.450000 1.550000 1.650000 1.750000 1.850000 1.950000 2.050000 2.150000 2.250000 2.350000 2.450000 2.550000 2.650000 2.750000 2.850000 2.950000 3.050000 3.150000 3.250000 3.350000 3.450000 3.550000 3.650000 3.750000 3.850000 3.950000 4.050000 4.150000 4.250000 4.350000 4.450000 4.550000 4.650000 4.750000 4.850000 4.950000 5.050000 5.150000 5.250000 5.350000 5.450000 5.550000 5.650000 5.750000 5.850000 5.950000 6.050000 6.150000 6.250000 6.350000 6.450000 6.550000 6.650000 6.750000 6.850000 6.950000 7.050000 7.150000 7.250000 7.350000 7.450000 7.550000 7.650000 7.750000 7.850000 7.950000 8.050000 8.150000 8.250000 8.350000 8.450000 8.550000 8.650000 8.750000 8.850000 8.950000 9.050000 9.150000 9.250000 9.350000 9.450000 9.550000 9.650000 9.750000 9.850000 9.950000 
Y_COORDINATES 26 double
0.050000 0.150000 0.250000 0.350000 0.450000 0.550000 0.650000 0.750000 0.850000 0.950000 1.050000 1.150000 1.250000 1.350000 1.450000 1.550000 1.650000 1.750000 1.850000 1.950000 2.050000 2.150000 2.250000 2.350000 2.450000 2.550000 
Z_COORDINATES 1 double
0.0
POINT_DATA 2600
VECTORS Vektorfeld double
1.000852 -0.000852 0.0
1.004769 -0.003064 0.0
1.013313 -0.005480 0.0
1.026772 -0.007980 0.0
1.045218 -0.010466 0.0
1.068494 -0.012811 0.0
1.096148 -0.014843 0.0
1.127348 -0.016358 0.0
1.160859 -0.017154 0.0
1.195102 -0.017089 0.0
1.228339 -0.016148 0.0
1.258919 -0.014432 0.0
1.285457 -0.012106 0.0
1.306902 -0.009339 0.0
1.322522 -0.006280 0.0
1.331860 -0.003059 0.0
1.334732 0.000187 0.0
1.331207 0.003338 0.0
1.321595 0.006274 0.0
1.306445 0.008875 0.0
1.286545 0.011026 0.0
1.262888 0.012631 0.0
1.236638 0.013619 0.0
1.209075 0.013944 0.0
1.181549 0.013582 0.0
1.155430 0.012536 0.0
1.132064 0.010830 0.0
1.112730 0.008505 0.0
1.098604 0.005621 0.0
1.090745 0.002237 0.0
1.090011 -0.001503 0.0
1.096793 -0.005280 0.0
1.110819 -0.008746 0.0
1.131066 -0.011500 0.0
1.155690 -0.013125 0.0
1.182109 -0.013293 0.0
1.207287 -0.011885 0.0
1.228233 -0.009061 0.0
1.242544 -0.005250 0.0
1.248812 -0.001017 0.0
1.246578 0.003251 0.0
1.236038 0.007289 0.0
1.217863 0.010886 0.0
1.193070 0.013908 0.0
1.162872 0.016290 0.0
1.128562 0.018019 0.0
1.091434 0.019109 0.0
1.052739 0.019585 0.0
1.013678 0.019476 0.0
0.975402 0.018799 0.0
0.939044 0.017559 0.0
0.905741 0.015744 0.0
0.876659 0.013338 0.0
0.852982 0.010340 0.0
0.835837 0.006804 0.0
0.826140 0.002893 0.0
0.824275 -0.001029 0.0
0.829874 -0.004569 0.0
0.842167 -0.007725 0.0
0.860478 -0.010587 0.0
0.884317 -0.013253 0.0
0.913360 -0.015789 0.0
0.947349 -0.018200 0.0
0.985939 -0.020390 0.0
1.028476 -0.022147 0.0
1.073779 -0.023155 0.0
1.119968 -0.023034 0.0
1.164407 -0.021405 0.0
1.203823 -0.018011 0.0
1.234703 -0.012869 0.0
1.254028 -0.006456 0.0
1.260134 0.000350 0.0
1.252866 0.006918 0.0
1.232964 0.012984 0.0
1.201725 0.018256 0.0
1.161018 0.022451 0.0
1.113242 0.025325 0.0
1.061237 0.026680 0.0
1.008174 0.026383 0.0
0.957382 0.024409 0.0
0.912079 0.020895 0.0
0.874988 0.016196 0.0
0.847924 0.010867 0.0
0.831495 0.005561 0.0
0.825012 0.000922 0.0
0.826576 -0.002487 0.0
0.833776 -0.004714 0.0
0.844587 -0.006097 0.0
0.857609 -0.006925 0.0
0.871950 -0.007416 0.0
0.887093 -0.007727 0.0
0.902774 -0.007954 0.0
0.918861 -0.008133 0.0
0.935232 -0.008238 0.0
0.951657 -0.008188 0.0
0.967715 -0.007869 0.0
0.982751 -0.007167 0.0
0.995956 -0.006039 0.0
1.006548 -0.004553 0.0
1.015360 -0.004259 0.0
1.001401 -0.003106 0.0
1.006720 -0.010046 0.0
1.017078 -0.017399 0.0
1.032525 -0.024968 0.0
1.053114 -0.032512 0.0
1.078742 -0.039669 0.0
1.109023 -0.045919 0.0
1.143156 -0.050615 0.0
1.179852 -0.053104 0.0
1.217366 -0.052896 0.0
1.253740 -0.049951 0.0
1.287169 -0.044638 0.0
1.316238 -0.037507 0.0
1.339944 -0.029090 0.0
1.357626 -0.019830 0.0
1.368883 -0.010103 0.0
1.373512 -0.000269 0.0
1.371526 0.009305 0.0
1.363209 0.018236 0.0
1.349127 0.026145 0.0
1.330101 0.032682 0.0
1.307174 0.037558 0.0
1.281560 0.040557 0.0
1.254589 0.041539 0.0
1.227660 0.040442 0.0
1.202184 0.037272 0.0
1.179541 0.032103 0.0
1.161033 0.025074 0.0
1.147830 0.016382 0.0
1.140863 0.006302 0.0
1.140768 -0.004738 0.0
1.147985 -0.016044 0.0
1.162636 -0.026660 0.0
1.184142 -0.035340 0.0
1.210953 -0.040722 0.0
1.240529 -0.041691 0.0
1.269646 -0.037782 0.0
1.294966 -0.029429 0.0
1.313661 -0.017889 0.0
1.323829 -0.004814 0.0
1.324688 0.008422 0.0
1.316480 0.020867 0.0
1.300093 0.031870 0.0
1.276759 0.041052 0.0
1.247858 0.048245 0.0
1.214804 0.053429 0.0
1.178965 0.056666 0.0
1.141637 0.058051 0.0
1.104035 0.057674 0.0
1.067307 0.055605 0.0
1.032539 0.051879 0.0
1.000748 0.046519 0.0
0.972818 0.039574 0.0
0.949408 0.031191 0.0
0.930836 0.021670 0.0
0.917074 0.011487 0.0
0.908041 0.001275 0.0
0.903951 -0.008382 0.0
0.905117 -0.017371 0.0
0.911665 -0.025800 0.0
0.923635 -0.033848 0.0
0.941084 -0.041686 0.0
0.964144 -0.049353 0.0
0.992922 -0.056606 0.0
1.027294 -0.062841 0.0
1.066668 -0.067138 0.0
1.109816 -0.068389 0.0
1.154817 -0.065490 0.0
1.199077 -0.057602 0.0
1.239401 -0.044482 0.0
1.272105 -0.026871 0.0
1.293424 -0.006661 0.0
1.301016 0.013606 0.0
1.294908 0.032306 0.0
1.276543 0.048537 0.0
1.247946 0.061474 0.0
1.211586 0.070438 0.0
1.170236 0.074922 0.0
1.126794 0.074647 0.0
1.084070 0.069661 0.0
1.044528 0.060487 0.0
1.010003 0.048220 0.0
0.981485 0.034425 0.0
0.959109 0.020809 0.0
0.942447 0.008820 0.0
0.931111 -0.000613 0.0
0.924690 -0.007367 0.0
0.922334 -0.011899 0.0
0.923033 -0.014845 0.0
0.925969 -0.016772 0.0
0.930599 -0.018144 0.0
0.936669 -0.019288 0.0
0.944144 -0.020361 0.0
0.953104 -0.021340 0.0
0.963623 -0.022030 0.0
0.975647 -0.022109 0.0
0.988908 -0.021224 0.0
1.002876 -0.019154 0.0
1.016800 -0.015953 0.0
1.028781 -0.013652 0.0
1.001287 -0.005794 0.0
1.006427 -0.017816 0.0
1.016761 -0.030321 0.0
1.032470 -0.043201 0.0
1.053763 -0.056160 0.0
1.080741 -0.068628 0.0
1.113211 -0.079710 0.0
1.150456 -0.088201 0.0
1.191058 -0.092815 0.0
1.232797 -0.092437 0.0
1.273057 -0.087043 0.0
1.309598 -0.077517 0.0
1.340897 -0.064997 0.0
1.366050 -0.050458 0.0
1.384524 -0.034618 0.0
1.395998 -0.018046 0.0
1.400335 -0.001293 0.0
1.397619 0.015030 0.0
1.388181 0.030267 0.0
1.372618 0.043759 0.0
1.351805 0.054905 0.0
1.326857 0.063210 0.0
1.299061 0.068316 0.0
1.269814 0.069998 0.0
1.240563 0.068163 0.0
1.212754 0.062836 0.0
1.187787 0.054149 0.0
1.166984 0.042338 0.0
1.151571 0.027735 0.0
1.142698 0.010790 0.0
1.141465 -0.007898 0.0
1.148784 -0.027419 0.0
1.165067 -0.046219 0.0
1.189833 -0.062052 0.0
1.221373 -0.072360 0.0
1.256705 -0.074960 0.0
1.291867 -0.068792 0.0
1.322580 -0.054451 0.0
1.345197 -0.034180 0.0
1.357641 -0.011135 0.0
1.359635 0.011890 0.0
1.352009 0.033233 0.0
1.336026 0.051872 0.0
1.313155 0.067256 0.0
1.284905 0.079191 0.0
1.252720 0.087722 0.0
1.217918 0.093013 0.0
1.181684 0.095266 0.0
1.145071 0.094674 0.0
1.109015 0.091390 0.0
1.074333 0.085543 0.0
1.041711 0.077268 0.0
1.011686 0.066780 0.0
0.984657 0.054425 0.0
0.960954 0.040711 0.0
0.940918 0.026244 0.0
0.924893 0.011577 0.0
0.913151 -0.002851 0.0
0.905804 -0.016720 0.0
0.902851 -0.030046 0.0
0.904398 -0.043118 0.0
0.910879 -0.056346 0.0
0.923051 -0.069926 0.0
0.941722 -0.083483 0.0
0.967346 -0.095960 0.0
0.999732 -0.105777 0.0
1.037947 -0.111113 0.0
1.080386 -0.110206 0.0
1.124888 -0.101648 0.0
1.168833 -0.084706 0.0
1.209189 -0.059707 0.0
1.242542 -0.028498 0.0
1.265275 0.005118 0.0
1.275345 0.036831 0.0
1.273111 0.064611 0.0
1.260041 0.087068 0.0
1.238107 0.103138 0.0
1.209560 0.112118 0.0
1.176722 0.113732 0.0
1.141765 0.108257 0.0
1.106545 0.096654 0.0
1.072521 0.080602 0.0
1.040804 0.062277 0.0
1.012249 0.043888 0.0
0.987484 0.027169 0.0
0.966778 0.013080 0.0
0.950062 0.002076 0.0
0.936991 -0.005914 0.0
0.926902 -0.011441 0.0
0.919094 -0.015303 0.0
0.913166 -0.018315 0.0
0.909074 -0.021096 0.0
0.907053 -0.024006 0.0
0.907464 -0.027066 0.0
0.910615 -0.029975 0.0
0.916611 -0.032184 0.0
0.925247 -0.033045 0.0
0.935960 -0.032014 0.0
0.947825 -0.028882 0.0
0.958898 -0.023777 0.0
1.001236 -0.008317 0.0
1.006250 -0.025447 0.0
1.016510 -0.043286 0.0
1.032418 -0.061853 0.0
1.054488 -0.080871 0.0
1.083211 -0.099620 0.0
1.118809 -0.116787 0.0
1.160825 -0.130386 0.0
1.207785 -0.138192 0.0
1.256515 -0.137528 0.0
1.302921 -0.128618 0.0
1.343993 -0.113555 0.0
1.378256 -0.094521 0.0
1.405199 -0.073028 0.0
1.424628 -0.049952 0.0
1.436345 -0.025903 0.0
1.440185 -0.001613 0.0
1.436184 0.022067 0.0
1.424646 0.044206 0.0
1.406215 0.063814 0.0
1.381888 0.079989 0.0
1.352949 0.092013 0.0
1.320875 0.099384 0.0
1.287240 0.101812 0.0
1.253648 0.099192 0.0
1.221681 0.091583 0.0
1.192861 0.079188 0.0
1.168623 0.062339 0.0
1.150300 0.041469 0.0
1.139169 0.017060 0.0
1.136513 -0.010280 0.0
1.143495 -0.039337 0.0
1.160765 -0.067854 0.0
1.187996 -0.092414 0.0
1.223586 -0.109130 0.0
1.264669 -0.114605 0.0
1.307198 -0.106840 0.0
1.346174 -0.086091 0.0
1.376427 -0.055409 0.0
1.394178 -0.020101 0.0
1.398495 0.014544 0.0
1.390808 0.045893 0.0
1.373317 0.072686 0.0
1.348269 0.094362 0.0
1.317727 0.110877 0.0
1.283461 0.122489 0.0
1.246919 0.129588 0.0
1.209265 0.132579 0.0
1.171422 0.131818 0.0
1.134121 0.127603 0.0
1.097939 0.120193 0.0
1.063330 0.109849 0.0
1.030664 0.096890 0.0
1.000283 0.081723 0.0
0.972542 0.064858 0.0
0.947762 0.046914 0.0
0.926102 0.028591 0.0
0.907439 0.010540 0.0
0.891525 -0.006850 0.0
0.878391 -0.023830 0.0
0.868724 -0.041214 0.0
0.863941 -0.059948 0.0
0.865831 -0.080387 0.0
0.875858 -0.101719 0.0
0.894580 -0.122070 0.0
0.921552 -0.139024 0.0
0.955569 -0.150098 0.0
0.994969 -0.153060 0.0
1.037828 -0.146156 0.0
1.082041 -0.128355 0.0
1.125307 -0.099680 0.0
1.165053 -0.061623 0.0
1.198221 -0.017658 0.0
1.221508 0.026249 0.0
1.233392 0.065543 0.0
1.234486 0.098111 0.0
1.226064 0.122451 0.0
1.209754 0.137662 0.0
1.187292 0.143488 0.0
1.160356 0.140393 0.0
1.130475 0.129618 0.0
1.099033 0.113103 0.0
1.067323 0.093204 0.0
1.036550 0.072290 0.0
1.007712 0.052370 0.0
0.981407 0.034889 0.0
0.957724 0.020666 0.0
0.936369 0.009923 0.0
0.916949 0.002230 0.0
0.899211 -0.003428 0.0
0.883226 -0.008276 0.0
0.869514 -0.013332 0.0
0.858866 -0.019100 0.0
0.851972 -0.025488 0.0
0.849205 -0.031938 0.0
0.850538 -0.037550 0.0
0.855532 -0.041309 0.0
0.863388 -0.042319 0.0
0.872982 -0.040036 0.0
0.882559 -0.033274 0.0
1.001163 -0.010715 0.0
1.005927 -0.032827 0.0
1.015832 -0.056071 0.0
1.031556 -0.080699 0.0
1.054059 -0.106598 0.0
1.084474 -0.133031 0.0
1.123818 -0.158316 0.0
1.172307 -0.179361 0.0
1.228951 -0.192822 0.0
1.288491 -0.191167 0.0
1.343295 -0.176189 0.0
1.389352 -0.153114 0.0
1.426066 -0.125938 0.0
1.454163 -0.096651 0.0
1.474256 -0.065852 0.0
1.486282 -0.033746 0.0
1.489783 -0.001112 0.0
1.484462 0.030889 0.0
1.470435 0.060948 0.0
1.448347 0.087592 0.0
1.419368 0.109517 0.0
1.385052 0.125740 0.0
1.347159 0.135624 0.0
1.307523 0.138841 0.0
1.267973 0.135305 0.0
1.230284 0.125127 0.0
1.196148 0.108600 0.0
1.167127 0.086186 0.0
1.144587 0.058486 0.0
1.129656 0.026106 0.0
1.123326 -0.010341 0.0
1.126566 -0.049497 0.0
1.140022 -0.088421 0.0
1.163550 -0.122606 0.0
1.196236 -0.147213 0.0
1.236621 -0.157988 0.0
1.282378 -0.151743 0.0
1.329498 -0.127284 0.0
1.371894 -0.086865 0.0
1.402539 -0.037040 0.0
1.416745 0.012959 0.0
1.414824 0.057086 0.0
1.399981 0.093827 0.0
1.375467 0.122783 0.0
1.344171 0.144293 0.0
1.308457 0.159054 0.0
1.270155 0.167866 0.0
1.230633 0.171477 0.0
1.190879 0.170516 0.0
1.151596 0.165489 0.0
1.113275 0.156810 0.0
1.076272 0.144844 0.0
1.040876 0.129958 0.0
1.007348 0.112564 0.0
0.975892 0.093214 0.0
0.946523 0.072705 0.0
0.918945 0.052038 0.0
0.892649 0.032051 0.0
0.867387 0.012816 0.0
0.843800 -0.006774 0.0
0.823850 -0.028653 0.0
0.810412 -0.054287 0.0
0.806013 -0.083539 0.0
0.811783 -0.114363 0.0
0.827328 -0.143693 0.0
0.851328 -0.168374 0.0
0.882164 -0.185601 0.0
0.918229 -0.193021 0.0
0.957977 -0.188802 0.0
0.999864 -0.171808 0.0
1.042264 -0.141894 0.0
1.083387 -0.100278 0.0
1.121134 -0.049918 0.0
1.152550 0.003807 0.0
1.174900 0.053750 0.0
1.187357 0.096354 0.0
1.190398 0.129587 0.0
1.184956 0.152278 0.0
1.172193 0.164098 0.0
1.153350 0.165562 0.0
1.129684 0.157997 0.0
1.102456 0.143394 0.0
1.072938 0.124141 0.0
1.042339 0.102724 0.0
1.011656 0.081457 0.0
0.981513 0.062251 0.0
0.952134 0.046366 0.0
0.923539 0.034173 0.0
0.895880 0.025059 0.0
0.869706 0.017655 0.0
0.845958 0.010374 0.0
0.825696 0.001992 0.0
0.809830 -0.007909 0.0
0.798965 -0.018920 0.0
0.793207 -0.029982 0.0
0.792137 -0.039768 0.0
0.794997 -0.046946 0.0
0.800825 -0.050367 0.0
0.808489 -0.049246 0.0
0.816546 -0.041698 0.0
1.001021 -0.012898 0.0
1.005247 -0.039634 0.0
1.014199 -0.068123 0.0
1.028852 -0.099025 0.0
1.050717 -0.132640 0.0
1.081856 -0.168543 0.0
1.124693 -0.204985 0.0
1.180976 -0.237463 0.0
1.252229 -0.262618 0.0
1.327719 -0.256400 0.0
1.391138 -0.229179 0.0
1.438856 -0.193900 0.0
1.473896 -0.156906 0.0
1.500000 -0.119884 0.0
1.519363 -0.082075 0.0
1.531989 -0.042175 0.0
1.536301 -0.000497 0.0
1.530789 0.041109 0.0
1.514964 0.080579 0.0
1.489389 0.115623 0.0
1.455500 0.144355 0.0
1.415231 0.165487 0.0
1.370714 0.178287 0.0
1.324090 0.182438 0.0
1.277436 0.177912 0.0
1.232741 0.164904 0.0
1.191885 0.143815 0.0
1.156576 0.115300 0.0
1.128151 0.080337 0.0
1.107182 0.040154 0.0
1.093321 -0.004199 0.0
1.086216 -0.051774 0.0
1.086218 -0.099602 0.0
1.093954 -0.142689 0.0
1.110512 -0.176375 0.0
1.137622 -0.196321 0.0
1.176352 -0.197898 0.0
1.225326 -0.177224 0.0
1.279550 -0.133545 0.0
1.330233 -0.071687 0.0
1.366727 -0.003094 0.0
1.383533 0.058255 0.0
1.382673 0.108361 0.0
1.368331 0.147105 0.0
1.344186 0.175411 0.0
1.313242 0.194594 0.0
1.277860 0.206011 0.0
1.239835 0.210880 0.0
1.200494 0.210208 0.0
1.160785 0.204790 0.0
1.121370 0.195246 0.0
1.082706 0.182074 0.0
1.045120 0.165711 0.0
1.008804 0.146655 0.0
0.973715 0.125669 0.0
0.939410 0.103925 0.0
0.905093 0.082714 0.0
0.870187 0.062576 0.0
0.835351 0.042387 0.0
0.803132 0.019461 0.0
0.777240 -0.009047 0.0
0.760997 -0.044211 0.0
0.755988 -0.084207 0.0
0.761702 -0.125180 0.0
0.776412 -0.163131 0.0
0.798236 -0.194760 0.0
0.825630 -0.217444 0.0
0.857411 -0.229024 0.0
0.892603 -0.227740 0.0
0.930254 -0.212409 0.0
0.969317 -0.182756 0.0
1.008569 -0.139790 0.0
1.046524 -0.086107 0.0
1.081238 -0.026133 0.0
1.109839 0.032738 0.0
1.130216 0.084534 0.0
1.142013 0.126569 0.0
1.145471 0.157282 0.0
1.141180 0.176148 0.0
1.129940 0.183594 0.0
1.112683 0.180890 0.0
1.090432 0.169979 0.0
1.064252 0.153253 0.0
1.035135 0.133327 0.0
1.003873 0.112799 0.0
0.971014 0.093912 0.0
0.937001 0.078097 0.0
0.902470 0.065566 0.0
0.868516 0.055278 0.0
0.836681 0.045445 0.0
0.808632 0.034381 0.0
0.785691 0.021188 0.0
0.768473 0.005979 0.0
0.756848 -0.010317 0.0
0.750273 -0.026252 0.0
0.748059 -0.040214 0.0
0.749410 -0.050712 0.0
0.753470 -0.056489 0.0
0.759309 -0.056627 0.0
0.765871 -0.048936 0.0
1.000770 -0.014690 0.0
1.004003 -0.045300 0.0
1.011038 -0.078445 0.0
1.023067 -0.115385 0.0
1.042127 -0.157204 0.0
1.071407 -0.204399 0.0
1.115511 -0.256071 0.0
1.179392 -0.306542 0.0
1.272665 -0.358064 0.0
1.368967 -0.332747 0.0
1.432839 -0.280124 0.0
1.469641 -0.227474 0.0
1.491918 -0.180650 0.0
1.508351 -0.138675 0.0
1.523437 -0.097733 0.0
1.537313 -0.053018 0.0
1.545780 -0.002433 0.0
1.543942 0.050396 0.0
1.529674 0.101384 0.0
1.503353 0.146714 0.0
1.466809 0.183698 0.0
1.422446 0.210776 0.0
1.372751 0.227211 0.0
1.320107 0.232782 0.0
1.266760 0.227569 0.0
1.214842 0.211860 0.0
1.166387 0.186170 0.0
1.123261 0.151379 0.0
1.086852 0.109093 0.0
1.057107 0.062112 0.0
1.031196 0.013616 0.0
1.004932 -0.036219 0.0
0.978055 -0.088282 0.0
0.955177 -0.138867 0.0
0.943194 -0.184772 0.0
0.948845 -0.220684 0.0
0.975330 -0.238751 0.0
1.021425 -0.231440 0.0
1.082458 -0.194586 0.0
1.150914 -0.129786 0.0
1.215957 -0.046533 0.0
1.264435 0.036410 0.0
1.291225 0.104276 0.0
1.300089 0.156667 0.0
1.294935 0.195147 0.0
1.279066 0.221671 0.0
1.255221 0.238161 0.0
1.225648 0.246327 0.0
1.192154 0.247595 0.0
1.156153 0.243112 0.0
1.118716 0.233776 0.0
1.080629 0.220295 0.0
1.042413 0.203292 0.0
1.004259 0.183543 0.0
0.965860 0.162269 0.0
0.926375 0.141115 0.0
0.884953 0.121262 0.0
0.841960 0.101926 0.0
0.800088 0.079745 0.0
0.763982 0.050428 0.0
0.738136 0.011723 0.0
0.724579 -0.035181 0.0
0.722502 -0.086151 0.0
0.729666 -0.136114 0.0
0.743772 -0.181012 0.0
0.763066 -0.217998 0.0
0.786410 -0.244944 0.0
0.813127 -0.260022 0.0
0.842785 -0.261591 0.0
0.874980 -0.248404 0.0
0.909172 -0.220017 0.0
0.944597 -0.177207 0.0
0.980226 -0.122275 0.0
1.014713 -0.059167 0.0
1.045822 0.006061 0.0
1.071009 0.065647 0.0
1.088901 0.115766 0.0
1.099144 0.154385 0.0
1.101802 0.180677 0.0
1.097237 0.194870 0.0
1.086017 0.198092 0.0
1.068847 0.192197 0.0
1.046485 0.179577 0.0
1.019641 0.162965 0.0
0.988930 0.145134 0.0
0.954971 0.128396 0.0
0.918623 0.113975 0.0
0.881237 0.101605 0.0
0.844680 0.089750 0.0
0.811025 0.076464 0.0
0.782033 0.060403 0.0
0.758751 0.041390 0.0
0.741404 0.020341 0.0
0.729566 -0.001216 0.0
0.722443 -0.021655 0.0
0.719209 -0.039363 0.0
0.719136 -0.052841 0.0
0.721531 -0.060813 0.0
0.725689 -0.062299 0.0
0.730890 -0.055027 0.0
1.000383 -0.015843 0.0
1.002044 -0.049040 0.0
1.005881 -0.085578 0.0
1.013060 -0.127461 0.0
1.025810 -0.176937 0.0
1.048201 -0.236338 0.0
1.087461 -0.307496 0.0
1.154409 -0.385946 0.0
1.278308 -0.495832 0.0
1.392390 -0.405363 0.0
1.428165 -0.307154 0.0
1.427383 -0.236465 0.0
1.418212 -0.184765 0.0
1.412314 -0.145095 0.0
1.415893 -0.109980 0.0
1.430646 -0.069400 0.0
1.450011 -0.013883 0.0
1.461543 0.052152 0.0
1.457947 0.117493 0.0
1.439283 0.175591 0.0
1.407888 0.222760 0.0
1.366601 0.257364 0.0
1.318041 0.278877 0.0
1.264538 0.287263 0.0
1.208249 0.282723 0.0
1.151235 0.265637 0.0
1.095461 0.236624 0.0
1.042764 0.196748 0.0
0.994572 0.148325 0.0
0.950398 0.096799 0.0
0.905306 0.049932 0.0
0.850921 0.008114 0.0
0.786292 -0.041109 0.0
0.728699 -0.105569 0.0
0.698403 -0.175790 0.0
0.700407 -0.237322 0.0
0.729646 -0.277837 0.0
0.779623 -0.288425 0.0
0.845113 -0.264124 0.0
0.921432 -0.205023 0.0
1.002789 -0.117696 0.0
1.079199 -0.017316 0.0
1.138340 0.072071 0.0
1.176450 0.141899 0.0
1.197143 0.194376 0.0
1.203453 0.232001 0.0
1.198027 0.257102 0.0
1.183230 0.271756 0.0
1.161147 0.277743 0.0
1.133568 0.276545 0.0
1.101971 0.269378 0.0
1.067502 0.257250 0.0
1.030909 0.241146 0.0
0.992386 0.222365 0.0
0.951478 0.202754 0.0
0.907451 0.184144 0.0
0.860462 0.166645 0.0
0.812938 0.147059 0.0
0.769663 0.119760 0.0
0.735814 0.080369 0.0
0.714413 0.029030 0.0
0.705310 -0.029828 0.0
0.706179 -0.090295 0.0
0.714258 -0.147213 0.0
0.727348 -0.197110 0.0
0.743963 -0.237808 0.0
0.763230 -0.267745 0.0
0.784784 -0.285492 0.0
0.808595 -0.289589 0.0
0.834738 -0.278743 0.0
0.863163 -0.252294 0.0
0.893543 -0.210734 0.0
0.925224 -0.156058 0.0
0.957199 -0.091847 0.0
0.988010 -0.023178 0.0
1.015267 0.042443 0.0
1.036845 0.099499 0.0
1.051839 0.145416 0.0
1.059839 0.178987 0.0
1.060792 0.200171 0.0
1.054896 0.209907 0.0
1.042512 0.209936 0.0
1.024082 0.202630 0.0
1.000082 0.190757 0.0
0.971069 0.177065 0.0
0.937862 0.163632 0.0
0.901759 0.151191 0.0
0.864622 0.138912 0.0
0.828659 0.124963 0.0
0.795950 0.107615 0.0
0.767989 0.086204 0.0
0.745470 0.061391 0.0
0.728385 0.034771 0.0
0.716287 0.008288 0.0
0.708499 -0.016248 0.0
0.704283 -0.037321 0.0
0.702979 -0.053507 0.0
0.703995 -0.063558 0.0
0.706777 -0.066494 0.0
0.710857 -0.060113 0.0
0.999862 -0.016088 0.0
0.999375 -0.049970 0.0
0.998679 -0.087789 0.0
0.998474 -0.132223 0.0
1.000366 -0.186815 0.0
1.008011 -0.256496 0.0
1.029790 -0.348377 0.0
1.083908 -0.466130 0.0
1.235229 -0.690866 0.0
1.336467 -0.425649 0.0
1.284052 -0.270228 0.0
1.210825 -0.199382 0.0
1.153397 -0.155249 0.0
1.112988 -0.128305 0.0
1.094721 -0.112083 0.0
1.104842 -0.092172 0.0
1.143010 -0.048643 0.0
1.188249 0.030140 0.0
1.216881 0.114468 0.0
1.225493 0.188667 0.0
1.217638 0.248934 0.0
1.196089 0.294026 0.0
1.163049 0.323815 0.0
1.120427 0.338452 0.0
1.070050 0.338201 0.0
1.013628 0.323596 0.0
0.952059 0.296009 0.0
0.883361 0.258757 0.0
0.800681 0.217188 0.0
0.697752 0.175039 0.0
0.584204 0.130333 0.0
0.489855 0.076447 0.0
0.440743 0.004298 0.0
0.435461 -0.088101 0.0
0.456241 -0.183742 0.0
0.490411 -0.265545 0.0
0.533894 -0.322336 0.0
0.586771 -0.346780 0.0
0.649814 -0.334302 0.0
0.722846 -0.284197 0.0
0.804103 -0.201136 0.0
0.889605 -0.095787 0.0
0.968912 0.012096 0.0
1.031345 0.101331 0.0
1.075373 0.170224 0.0
1.103374 0.221842 0.0
1.117368 0.258692 0.0
1.119336 0.282996 0.0
1.111212 0.296710 0.0
1.094816 0.301552 0.0
1.071765 0.299018 0.0
1.043366 0.290478 0.0
1.010448 0.277430 0.0
0.973213 0.261839 0.0
0.931398 0.246003 0.0
0.885150 0.231170 0.0
0.836415 0.215343 0.0
0.789576 0.192723 0.0
0.750118 0.156829 0.0
0.722001 0.105265 0.0
0.706098 0.041439 0.0
0.700825 -0.027861 0.0
0.703648 -0.095955 0.0
0.712116 -0.158099 0.0
0.724269 -0.211467 0.0
0.738687 -0.254483 0.0
0.754505 -0.286156 0.0
0.771427 -0.305558 0.0
0.789654 -0.311560 0.0
0.809663 -0.302924 0.0
0.831898 -0.278775 0.0
0.856508 -0.239244 0.0
0.883223 -0.185943 0.0
0.911363 -0.122077 0.0
0.939853 -0.052248 0.0
0.966786 0.017323 0.0
0.989934 0.079892 0.0
1.007806 0.132157 0.0
1.019575 0.172476 0.0
1.024808 0.200496 0.0
1.023352 0.216936 0.0
1.015241 0.223402 0.0
1.000649 0.222186 0.0
0.979893 0.215956 0.0
0.953555 0.207216 0.0
0.922665 0.197578 0.0
0.888824 0.187188 0.0
0.854104 0.174771 0.0
0.820686 0.158486 0.0
0.790394 0.137092 0.0
0.764387 0.110694 0.0
0.743134 0.080673 0.0
0.726599 0.049109 0.0
0.714463 0.018184 0.0
0.706253 -0.010146 0.0
0.701398 -0.034352 0.0
0.699304 -0.053077 0.0
0.699422 -0.065122 0.0
0.701272 -0.069564 0.0
0.704541 -0.064391 0.0
0.999262 -0.015211 0.0
0.996278 -0.047376 0.0
0.990169 -0.083578 0.0
0.980671 -0.126733 0.0
0.967589 -0.181115 0.0
0.951454 -0.253706 0.0
0.935782 -0.357275 0.0
0.935526 -0.511094 0.0
1.035816 -0.897514 0.0
1.028355 -0.206901 0.0
0.824792 -0.114830 0.0
0.670917 -0.115386 0.0
0.582070 -0.092971 0.0
0.520460 -0.088563 0.0
0.498187 -0.111285 0.0
0.525346 -0.130250 0.0
0.593104 -0.116489 0.0
0.689356 -0.043505 0.0
0.781648 0.067189 0.0
0.845132 0.163849 0.0
0.884106 0.242634 0.0
0.901950 0.304030 0.0
0.900365 0.348436 0.0
0.880654 0.376163 0.0
0.843753 0.387767 0.0
0.789469 0.384737 0.0
0.715509 0.370397 0.0
0.619160 0.349416 0.0
0.505359 0.323010 0.0
0.394536 0.282969 0.0
0.314211 0.216276 0.0
0.279085 0.119978 0.0
0.283911 0.005052 0.0
0.311785 -0.111446 0.0
0.347686 -0.217078 0.0
0.385414 -0.304106 0.0
0.424745 -0.366589 0.0
0.468345 -0.399005 0.0
0.519667 -0.396442 0.0
0.581112 -0.356533 0.0
0.652892 -0.281836 0.0
0.732921 -0.180618 0.0
0.816586 -0.066044 0.0
0.892931 0.040691 0.0
0.953425 0.126342 0.0
0.998113 0.193035 0.0
1.028285 0.243334 0.0
1.045278 0.279393 0.0
1.050568 0.303148 0.0
1.045684 0.316395 0.0
1.032078 0.320833 0.0
1.010940 0.318201 0.0
0.983009 0.310555 0.0
0.948552 0.300405 0.0
0.907875 0.289929 0.0
0.862476 0.278892 0.0
0.816037 0.262795 0.0
0.773928 0.234218 0.0
0.740982 0.187738 0.0
0.719390 0.124066 0.0
0.708561 0.049370 0.0
0.706519 -0.028478 0.0
0.711065 -0.102707 0.0
0.720149 -0.168900 0.0
0.731970 -0.224641 0.0
0.745057 -0.268814 0.0
0.758403 -0.300989 0.0
0.771612 -0.320857 0.0
0.784940 -0.327816 0.0
0.799142 -0.320878 0.0
0.815133 -0.299046 0.0
0.833591 -0.262040 0.0
0.854696 -0.210968 0.0
0.878085 -0.148582 0.0
0.902922 -0.079069 0.0
0.927833 -0.007700 0.0
0.950778 0.058821 0.0
0.969872 0.116263 0.0
0.983950 0.162524 0.0
0.992247 0.196917 0.0
0.994298 0.219921 0.0
0.989860 0.232966 0.0
0.978893 0.238181 0.0
0.961627 0.237984 0.0
0.938691 0.234462 0.0
0.911258 0.228656 0.0
0.881040 0.220170 0.0
0.850055 0.207493 0.0
0.820234 0.189004 0.0
0.793052 0.164049 0.0
0.769397 0.133400 0.0
0.749660 0.098957 0.0
0.733916 0.063104 0.0
0.722049 0.028193 0.0
0.713805 -0.003701 0.0
0.708776 -0.030913 0.0
0.706432 -0.052079 0.0
0.706222 -0.066029 0.0
0.707655 -0.071939 0.0
0.710461 -0.068091 0.0
0.998692 -0.013165 0.0
0.993325 -0.041072 0.0
0.981982 -0.072430 0.0
0.963243 -0.109644 0.0
0.934440 -0.156318 0.0
0.890659 -0.218587 0.0
0.822240 -0.308303 0.0
0.711231 -0.448800 0.0
0.321104 -0.775850 0.0
-0.464443 0.281456 0.0
-0.464443 0.000000 0.0
-0.044649 -0.032025 0.0
-0.082653 -0.062106 0.0
-0.040804 -0.099666 0.0
0.039388 -0.158101 0.0
0.124824 -0.196029 0.0
0.202396 -0.196040 0.0
0.283429 -0.141240 0.0
0.377551 -0.021490 0.0
0.465456 0.101138 0.0
0.530844 0.200985 0.0
0.575274 0.283405 0.0
0.596962 0.348958 0.0
0.594398 0.397916 0.0
0.566178 0.431135 0.0
0.511160 0.450670 0.0
0.430957 0.458627 0.0
0.336623 0.451869 0.0
0.250858 0.420122 0.0
0.197032 0.350506 0.0
0.184157 0.241939 0.0
0.204512 0.109087 0.0
0.243064 -0.027435 0.0
0.286350 -0.150120 0.0
0.326878 -0.254834 0.0
0.362217 -0.339417 0.0
0.393033 -0.401424 0.0
0.422782 -0.437518 0.0
0.456798 -0.443267 0.0
0.500314 -0.414669 0.0
0.556143 -0.351310 0.0
0.623630 -0.258661 0.0
0.699343 -0.147379 0.0
0.776908 -0.031884 0.0
0.846154 0.069178 0.0
0.901250 0.150415 0.0
0.942681 0.214351 0.0
0.971112 0.262950 0.0
0.987438 0.297975 0.0
0.992712 0.321176 0.0
0.987997 0.334373 0.0
0.974164 0.339631 0.0
0.951770 0.339449 0.0
0.921272 0.336467 0.0
0.883812 0.332004 0.0
0.842257 0.323772 0.0
0.801399 0.305212 0.0
0.766497 0.268813 0.0
0.741035 0.211551 0.0
0.725734 0.137145 0.0
0.719418 0.053436 0.0
0.720337 -0.031422 0.0
0.726723 -0.110695 0.0
0.736807 -0.180080 0.0
0.748871 -0.237345 0.0
0.761374 -0.281700 0.0
0.773151 -0.313226 0.0
0.783618 -0.332296 0.0
0.792924 -0.339012 0.0
0.801928 -0.332887 0.0
0.811906 -0.313006 0.0
0.824079 -0.278713 0.0
0.839172 -0.230494 0.0
0.857222 -0.170494 0.0
0.877643 -0.102415 0.0
0.899370 -0.030992 0.0
0.920663 0.037875 0.0
0.939583 0.099195 0.0
0.954690 0.150408 0.0
0.964945 0.190480 0.0
0.969622 0.219629 0.0
0.968257 0.239061 0.0
0.960665 0.250645 0.0
0.947021 0.256430 0.0
0.927989 0.257984 0.0
0.904774 0.255781 0.0
0.879020 0.249018 0.0
0.852506 0.236142 0.0
0.826802 0.215880 0.0
0.803039 0.188117 0.0
0.781923 0.154104 0.0
0.763867 0.116046 0.0
0.749123 0.076504 0.0
0.737812 0.037971 0.0
0.729892 0.002685 0.0
0.725102 -0.027480 0.0
0.722981 -0.051046 0.0
0.722952 -0.066822 0.0
0.724453 -0.074079 0.0
0.727131 -0.071435 0.0
0.998277 -0.010134 0.0
0.991186 -0.031645 0.0
0.976101 -0.055429 0.0
0.950894 -0.082699 0.0
0.911464 -0.115030 0.0
0.849909 -0.154541 0.0
0.749873 -0.203894 0.0
0.572541 -0.264867 0.0
0.228816 -0.327139 0.0
0.000000 0.281456 0.0
-0.000000 -0.000000 0.0
0.000000 0.000000 0.0
-0.035026 -0.034375 0.0
-0.077088 -0.127833 0.0
-0.077680 -0.209535 0.0
-0.059116 -0.248594 0.0
-0.037551 -0.242612 0.0
-0.007591 -0.205661 0.0
0.054605 -0.113387 0.0
0.137553 0.022182 0.0
0.211835 0.140271 0.0
0.267956 0.243567 0.0
0.301984 0.333080 0.0
0.310107 0.408236 0.0
0.290734 0.468409 0.0
0.246251 0.512897 0.0
0.187525 0.535329 0.0
0.136578 0.520448 0.0
0.114063 0.459823 0.0
0.126371 0.352325 0.0
0.166672 0.212695 0.0
0.222500 0.062148 0.0
0.280484 -0.077032 0.0
0.332009 -0.195335 0.0
0.374612 -0.292750 0.0
0.407078 -0.369307 0.0
0.429805 -0.425077 0.0
0.445618 -0.459428 0.0
0.460148 -0.469904 0.0
0.480826 -0.452226 0.0
0.514086 -0.402841 0.0
0.562374 -0.322905 0.0
0.623472 -0.219946 0.0
0.692252 -0.105662 0.0
0.760574 0.005388 0.0
0.820166 0.099516 0.0
0.867871 0.176115 0.0
0.903728 0.236897 0.0
0.928044 0.283387 0.0
0.941321 0.317213 0.0
0.944119 0.340254 0.0
0.936908 0.354795 0.0
0.920105 0.363482 0.0
0.894525 0.368512 0.0
0.862223 0.369719 0.0
0.827080 0.362754 0.0
0.794148 0.340019 0.0
0.767766 0.295290 0.0
0.749975 0.228328 0.0
0.740614 0.145030 0.0
0.738523 0.053959 0.0
0.742374 -0.036715 0.0
0.750728 -0.120142 0.0
0.761980 -0.191969 0.0
0.774484 -0.250024 0.0
0.786702 -0.293743 0.0
0.797382 -0.323641 0.0
0.805775 -0.340740 0.0
0.811839 -0.345938 0.0
0.816347 -0.339473 0.0
0.820744 -0.320794 0.0
0.826701 -0.289054 0.0
0.835537 -0.244082 0.0
0.847812 -0.187231 0.0
0.863273 -0.121560 0.0
0.881050 -0.051351 0.0
0.899690 0.018301 0.0
0.917374 0.082163 0.0
0.932477 0.137229 0.0
0.943764 0.182118 0.0
0.950314 0.216764 0.0
0.951507 0.242097 0.0
0.947061 0.259648 0.0
0.937118 0.271013 0.0
0.922327 0.277224 0.0
0.903821 0.278262 0.0
0.883035 0.273078 0.0
0.861407 0.260224 0.0
0.840115 0.238795 0.0
0.819991 0.209087 0.0
0.801617 0.172624 0.0
0.785467 0.131732 0.0
0.771974 0.089055 0.0
0.761477 0.047227 0.0
0.754135 0.008692 0.0
0.749839 -0.024401 0.0
0.748201 -0.050366 0.0
0.748644 -0.067917 0.0
0.750524 -0.076365 0.0
0.753303 -0.074606 0.0
0.998101 -0.006512 0.0
0.990297 -0.020371 0.0
0.973777 -0.035098 0.0
0.946493 -0.050540 0.0
0.904782 -0.066048 0.0
0.842565 -0.079751 0.0
0.750594 -0.086676 0.0
0.617989 -0.072149 0.0
0.443079 0.003447 0.0
0.172990 0.155173 0.0
0.000000 0.000000 0.0
-0.000000 -0.000000 0.0
0.000000 0.000000 0.0
-0.060381 -0.060398 0.0
-0.141164 -0.195578 0.0
-0.168928 -0.253350 0.0
-0.186372 -0.241977 0.0
-0.196763 -0.225865 0.0
-0.180703 -0.171440 0.0
-0.124556 -0.058861 0.0
-0.047066 0.069542 0.0
0.019096 0.192012 0.0
0.063980 0.305722 0.0
0.084896 0.406555 0.0
0.083987 0.490372 0.0
0.068617 0.550786 0.0
0.055934 0.568848 0.0
0.064525 0.529285 0.0
0.100635 0.437390 0.0
0.159419 0.303666 0.0
0.231607 0.148864 0.0
0.305965 -0.004208 0.0
0.372429 -0.135122 0.0
0.427190 -0.243531 0.0
0.469815 -0.329782 0.0
0.499704 -0.394628 0.0
0.516819 -0.439598 0.0
0.522511 -0.466413 0.0
0.520683 -0.475621 0.0
0.518496 -0.465001 0.0
0.524998 -0.429827 0.0
0.547291 -0.366501 0.0
0.586979 -0.277137 0.0
0.640112 -0.170383 0.0
0.699965 -0.058065 0.0
0.757803 0.045539 0.0
0.807295 0.132895 0.0
0.846899 0.204655 0.0
0.876220 0.261993 0.0
0.895184 0.306367 0.0
0.903841 0.339645 0.0
0.902318 0.364137 0.0
0.891041 0.382220 0.0
0.871315 0.395082 0.0
0.845966 0.400800 0.0
0.819298 0.393485 0.0
0.795838 0.365681 0.0
0.778615 0.313233 0.0
0.768494 0.238297 0.0
0.764944 0.147971 0.0
0.767078 0.050974 0.0
0.773926 -0.044428 0.0
0.784223 -0.131080 0.0
0.796468 -0.204529 0.0
0.809134 -0.262634 0.0
0.820794 -0.305010 0.0
0.830252 -0.332513 0.0
0.836702 -0.346711 0.0
0.839931 -0.349259 0.0
0.840512 -0.341241 0.0
0.839836 -0.322747 0.0
0.839816 -0.293039 0.0