# vtk DataFile Version 3.0
Vector Field
ASCII
DATASET RECTILINEAR_GRID
DIMENSIONS 100 26 1
X_COORDINATES 100 double
0.050000 0.150000 0.250000 0.350000 0.450000 0.550000 0.650000 0.750000 0.850000 0.950000 1.050000 1.150000 1.250000 1.350000 1.450000 1.550000 1.650000 1.750000 1.850000 1.950000 2.050000 2.150000 2.250000 2.350000 2.450000 2.550000 2.650000 2.750000 2.850000 2.950000 3.050000 3.150000 3.250000 3.350000 3.450000 3.550000 3.650000 3.750000 3.850000 3.950000 4.050000 4.150000 4.250000 4.350000 4.450000 4.550000 4.650000 4.750000 4.850000 4.950000 5.050000 5.150000 5.250000 5.350000 5.450000 5.550000 5.650000 5.750000 5.850000 5.950000 6.050000 6.150000 6.250000 6.350000 6.450000 6.550000 6.650000 6.750000 6.850000 6.950000 7.050000 7.150000 7.250000 7.350000 7.450000 7.550000 7.650000 7.750000 7.850000 7.950000 8.050000 8.150000 8.250000 8.350000 8.450000 8.550000 8.650000 8.750000 8.850000 8.950000 9.050000 9.150000 9.250000 9.350000 9.450000 9.550000 9.650000 9.750000 9.850000 9.950000 
Y_COORDINATES 26 double
0.050000 0.150000 0.250000 0.350000 0.450000 0.550000 0.650000 0.750000 0.850000 0.950000 1.050000 1.150000 1.250000 1.350000 1.450000 1.550000 1.650000 1.750000 1.850000 1.950000 2.050000 2.150000 2.250000 2.350000 2.450000 2.550000 
Z_COORDINATES 1 double
0.0
POINT_DATA 2600
VECTORS Vektorfeld double
0.997586 0.002414 0.0
0.994408 0.000764 0.0
0.997517 -0.003874 0.0
1.009406 -0.008016 0.0
1.027614 -0.010192 0.0
1.048537 -0.010731 0.0
1.069459 -0.010192 0.0
1.088460 -0.008809 0.0
1.103927 -0.006657 0.0
1.114460 -0.003876 0.0
1.119106 -0.000769 0.0
1.117588 0.002287 0.0
1.110330 0.004971 0.0
1.098327 0.007032 0.0
1.082938 0.008357 0.0
1.065621 0.008960 0.0
1.047716 0.008945 0.0
1.030310 0.008461 0.0
1.014184 0.007664 0.0
0.999826 0.006694 0.0
0.987466 0.005665 0.0
0.977141 0.004660 0.0
0.968751 0.003730 0.0
0.962113 0.002908 0.0
0.957002 0.002203 0.0
0.953182 0.001617 0.0
0.950424 0.001141 0.0
0.948521 0.000762 0.0
0.947292 0.000467 0.0
0.946582 0.000242 0.0
0.946265 0.000075 0.0
0.946239 -0.000048 0.0
0.946422 -0.000134 0.0
0.946748 -0.000192 0.0
0.947168 -0.000227 0.0
0.947642 -0.000247 0.0
0.948144 -0.000255 0.0
0.948652 -0.000254 0.0
0.949154 -0.000247 0.0
0.949638 -0.000237 0.0
0.950098 -0.000223 0.0
0.950530 -0.000209 0.0
0.950932 -0.000193 0.0
0.951304 -0.000178 0.0
0.951645 -0.000163 0.0
0.951957 -0.000149 0.0
0.952240 -0.000135 0.0
0.952497 -0.000122 0.0
0.952729 -0.000110 0.0
0.952938 -0.000099 0.0
0.953126 -0.000089 0.0
0.953295 -0.000080 0.0
0.953446 -0.000071 0.0
0.953582 -0.000064 0.0
0.953703 -0.000057 0.0
0.953811 -0.000051 0.0
0.953907 -0.000045 0.0
0.953993 -0.000040 0.0
0.954070 -0.000036 0.0
0.954138 -0.000032 0.0
0.954198 -0.000029 0.0
0.954252 -0.000025 0.0
0.954300 -0.000023 0.0
0.954343 -0.000020 0.0
0.954381 -0.000018 0.0
0.954414 -0.000016 0.0
0.954444 -0.000014 0.0
0.954471 -0.000013 0.0
0.954495 -0.000011 0.0
0.954516 -0.000010 0.0
0.954535 -0.000009 0.0
0.954552 -0.000008 0.0
0.954568 -0.000007 0.0
0.954582 -0.000007 0.0
0.954595 -0.000006 0.0
0.954608 -0.000006 0.0
0.954619 -0.000006 0.0
0.954631 -0.000006 0.0
0.954642 -0.000006 0.0
0.954654 -0.000006 0.0
0.954667 -0.000007 0.0
0.954681 -0.000008 0.0
0.954697 -0.000009 0.0
0.954717 -0.000010 0.0
0.954739 -0.000013 0.0
0.954767 -0.000015 0.0
0.954802 -0.000019 0.0
0.954846 -0.000024 0.0
0.954902 -0.000031 0.0
0.954974 -0.000040 0.0
0.955067 -0.000053 0.0
0.955190 -0.000070 0.0
0.955354 -0.000094 0.0
0.955578 -0.000129 0.0
0.955890 -0.000183 0.0
0.956344 -0.000271 0.0
0.957043 -0.000428 0.0
0.958218 -0.000747 0.0
0.960504 -0.001539 0.0
0.964615 -0.002571 0.0
1.002901 0.001927 0.0
1.012253 -0.004922 0.0
1.028391 -0.017434 0.0
1.049739 -0.027692 0.0
1.073693 -0.032677 0.0
1.098122 -0.033598 0.0
1.121672 -0.031797 0.0
1.143077 -0.027610 0.0
1.160784 -0.021030 0.0
1.173121 -0.012374 0.0
1.178770 -0.002567 0.0
1.177235 0.007137 0.0
1.169028 0.015586 0.0
1.155462 0.021986 0.0
1.138238 0.026017 0.0
1.119086 0.027768 0.0
1.099530 0.027599 0.0
1.080752 0.025992 0.0
1.063565 0.023445 0.0
1.048440 0.020397 0.0
1.035568 0.017195 0.0
1.024933 0.014090 0.0
1.016384 0.011239 0.0
1.009693 0.008728 0.0
1.004599 0.006588 0.0
1.000837 0.004814 0.0
0.998160 0.003378 0.0
0.996346 0.002241 0.0
0.995206 0.001358 0.0
0.994581 0.000687 0.0
0.994341 0.000188 0.0
0.994380 -0.000174 0.0
0.994616 -0.000427 0.0
0.994987 -0.000596 0.0
0.995445 -0.000701 0.0
0.995954 -0.000757 0.0
0.996487 -0.000779 0.0
0.997024 -0.000775 0.0
0.997551 -0.000754 0.0
0.998057 -0.000721 0.0
0.998538 -0.000680 0.0
0.998988 -0.000635 0.0
0.999407 -0.000588 0.0
0.999793 -0.000541 0.0
1.000147 -0.000495 0.0
1.000470 -0.000451 0.0
1.000764 -0.000409 0.0
1.001030 -0.000370 0.0
1.001270 -0.000334 0.0
1.001486 -0.000301 0.0
1.001681 -0.000270 0.0
1.001855 -0.000242 0.0
1.002011 -0.000217 0.0
1.002151 -0.000194 0.0
1.002276 -0.000173 0.0
1.002388 -0.000154 0.0
1.002487 -0.000138 0.0
1.002576 -0.000123 0.0
1.002655 -0.000109 0.0
1.002725 -0.000097 0.0
1.002788 -0.000087 0.0
1.002843 -0.000077 0.0
1.002893 -0.000068 0.0
1.002937 -0.000061 0.0
1.002976 -0.000054 0.0
1.003011 -0.000048 0.0
1.003042 -0.000043 0.0
1.003069 -0.000038 0.0
1.003094 -0.000034 0.0
1.003116 -0.000030 0.0
1.003135 -0.000027 0.0
1.003153 -0.000025 0.0
1.003169 -0.000022 0.0
1.003183 -0.000021 0.0
1.003197 -0.000019 0.0
1.003209 -0.000018 0.0
1.003221 -0.000017 0.0
1.003233 -0.000017 0.0
1.003244 -0.000017 0.0
1.003256 -0.000018 0.0
1.003269 -0.000020 0.0
1.003283 -0.000022 0.0
1.003298 -0.000026 0.0
1.003317 -0.000031 0.0
1.003338 -0.000037 0.0
1.003365 -0.000046 0.0
1.003398 -0.000057 0.0
1.003439 -0.000072 0.0
1.003492 -0.000092 0.0
1.003558 -0.000118 0.0
1.003644 -0.000154 0.0
1.003756 -0.000203 0.0
1.003903 -0.000272 0.0
1.004098 -0.000370 0.0
1.004359 -0.000516 0.0
1.004710 -0.000743 0.0
1.005175 -0.001120 0.0
1.005741 -0.001796 0.0
1.006123 -0.003158 0.0
1.005978 -0.004918 0.0
1.001856 -0.002830 0.0
1.009668 -0.017329 0.0
1.025539 -0.037036 0.0
1.047804 -0.051705 0.0
1.073420 -0.058234 0.0
1.100045 -0.059095 0.0
1.126302 -0.056106 0.0
1.150816 -0.049221 0.0
1.171607 -0.037916 0.0
1.186236 -0.022453 0.0
1.192710 -0.004611 0.0
1.190381 0.013046 0.0
1.180076 0.028189 0.0
1.163652 0.039371 0.0
1.143385 0.046123 0.0
1.121455 0.048744 0.0
1.099646 0.047988 0.0
1.079241 0.044786 0.0
1.061030 0.040049 0.0
1.045394 0.034555 0.0
1.032403 0.028901 0.0
1.021922 0.023500 0.0
1.013694 0.018604 0.0
1.007409 0.014338 0.0
1.002746 0.010736 0.0
0.999401 0.007774 0.0
0.997104 0.005393 0.0
0.995623 0.003520 0.0
0.994766 0.002076 0.0
0.994375 0.000985 0.0
0.994324 0.000180 0.0
0.994516 -0.000398 0.0
0.994875 -0.000799 0.0
0.995342 -0.001063 0.0
0.995874 -0.001224 0.0
0.996438 -0.001308 0.0
0.997011 -0.001335 0.0
0.997577 -0.001322 0.0
0.998123 -0.001280 0.0
0.998643 -0.001220 0.0
0.999131 -0.001149 0.0
0.999586 -0.001071 0.0
1.000006 -0.000991 0.0
1.000391 -0.000910 0.0
1.000744 -0.000832 0.0
1.001064 -0.000758 0.0
1.001354 -0.000687 0.0
1.001617 -0.000621 0.0
1.001853 -0.000560 0.0
1.002066 -0.000504 0.0
1.002257 -0.000452 0.0
1.002428 -0.000405 0.0
1.002581 -0.000363 0.0
1.002718 -0.000324 0.0
1.002840 -0.000290 0.0
1.002949 -0.000258 0.0
1.003046 -0.000230 0.0
1.003133 -0.000205 0.0
1.003210 -0.000183 0.0
1.003278 -0.000163 0.0
1.003339 -0.000145 0.0
1.003393 -0.000129 0.0
1.003442 -0.000114 0.0
1.003484 -0.000102 0.0
1.003522 -0.000090 0.0
1.003556 -0.000080 0.0
1.003586 -0.000072 0.0
1.003613 -0.000064 0.0
1.003637 -0.000057 0.0
1.003658 -0.000051 0.0
1.003677 -0.000046 0.0
1.003694 -0.000041 0.0
1.003710 -0.000037 0.0
1.003724 -0.000034 0.0
1.003737 -0.000032 0.0
1.003749 -0.000030 0.0
1.003760 -0.000029 0.0
1.003771 -0.000028 0.0
1.003782 -0.000029 0.0
1.003793 -0.000030 0.0
1.003804 -0.000032 0.0
1.003817 -0.000036 0.0
1.003831 -0.000042 0.0
1.003847 -0.000049 0.0
1.003867 -0.000060 0.0
1.003890 -0.000073 0.0
1.003919 -0.000091 0.0
1.003954 -0.000115 0.0
1.003999 -0.000146 0.0
1.004055 -0.000188 0.0
1.004127 -0.000243 0.0
1.004218 -0.000318 0.0
1.004334 -0.000420 0.0
1.004481 -0.000563 0.0
1.004665 -0.000767 0.0
1.004887 -0.001065 0.0
1.005134 -0.001510 0.0
1.005347 -0.002185 0.0
1.005373 -0.003177 0.0
1.005037 -0.004419 0.0
1.001525 -0.006211 0.0
1.008630 -0.028865 0.0
1.024000 -0.056741 0.0
1.046438 -0.076704 0.0
1.073198 -0.085611 0.0
1.102197 -0.087342 0.0
1.132230 -0.084149 0.0
1.161783 -0.075247 0.0
1.188073 -0.058970 0.0
1.206968 -0.034923 0.0
1.214865 -0.006512 0.0
1.210775 0.021365 0.0
1.196311 0.044640 0.0
1.174563 0.061092 0.0
1.148933 0.070299 0.0
1.122360 0.073072 0.0
1.096999 0.070830 0.0
1.074206 0.065143 0.0
1.054657 0.057451 0.0
1.038523 0.048922 0.0
1.025642 0.040405 0.0
1.015664 0.032456 0.0
1.008155 0.025385 0.0
1.002675 0.019323 0.0
0.998813 0.014276 0.0
0.996213 0.010179 0.0
0.994575 0.006923 0.0
0.993658 0.004388 0.0
0.993270 0.002454 0.0
0.993260 0.001008 0.0
0.993515 -0.000047 0.0
0.993947 -0.000795 0.0
0.994491 -0.001305 0.0
0.995100 -0.001633 0.0
0.995739 -0.001824 0.0
0.996381 -0.001914 0.0
0.997011 -0.001931 0.0
0.997617 -0.001896 0.0
0.998190 -0.001826 0.0
0.998727 -0.001732 0.0
0.999226 -0.001624 0.0
0.999685 -0.001510 0.0
1.000107 -0.001393 0.0
1.000490 -0.001278 0.0
1.000839 -0.001166 0.0
1.001155 -0.001060 0.0
1.001440 -0.000960 0.0
1.001697 -0.000867 0.0
1.001927 -0.000781 0.0
1.002134 -0.000702 0.0
1.002319 -0.000630 0.0
1.002485 -0.000564 0.0
1.002633 -0.000505 0.0
1.002765 -0.000451 0.0
1.002883 -0.000403 0.0
1.002988 -0.000359 0.0
1.003081 -0.000320 0.0
1.003165 -0.000285 0.0
1.003239 -0.000254 0.0
1.003304 -0.000226 0.0
1.003363 -0.000201 0.0
1.003415 -0.000179 0.0
1.003461 -0.000159 0.0
1.003502 -0.000141 0.0
1.003539 -0.000125 0.0
1.003571 -0.000112 0.0
1.003600 -0.000099 0.0
1.003625 -0.000088 0.0
1.003648 -0.000079 0.0
1.003668 -0.000070 0.0
1.003686 -0.000063 0.0
1.003703 -0.000057 0.0
1.003717 -0.000052 0.0
1.003731 -0.000047 0.0
1.003743 -0.000044 0.0
1.003754 -0.000041 0.0
1.003764 -0.000039 0.0
1.003774 -0.000039 0.0
1.003784 -0.000039 0.0
1.003794 -0.000041 0.0
1.003804 -0.000044 0.0
1.003815 -0.000049 0.0
1.003827 -0.000056 0.0
1.003840 -0.000065 0.0
1.003856 -0.000079 0.0
1.003875 -0.000096 0.0
1.003898 -0.000119 0.0
1.003926 -0.000150 0.0
1.003960 -0.000190 0.0
1.004003 -0.000243 0.0
1.004055 -0.000312 0.0
1.004120 -0.000405 0.0
1.004199 -0.000528 0.0
1.004292 -0.000696 0.0
1.004398 -0.000924 0.0
1.004507 -0.001239 0.0
1.004594 -0.001671 0.0
1.004610 -0.002253 0.0
1.004471 -0.002995 0.0
1.004091 -0.003884 0.0
1.001391 -0.009127 0.0
1.008025 -0.039687 0.0
1.022698 -0.075962 0.0
1.044736 -0.101958 0.0
1.072140 -0.114522 0.0
1.103625 -0.118915 0.0
1.138674 -0.117656 0.0
1.176014 -0.108633 0.0
1.211933 -0.087793 0.0
1.238695 -0.051756 0.0
1.248997 -0.007878 0.0
1.241534 0.034284 0.0
1.219812 0.067907 0.0
1.189333 0.090052 0.0
1.155395 0.100907 0.0
1.122019 0.102413 0.0
1.091752 0.097116 0.0
1.065896 0.087506 0.0
1.044839 0.075694 0.0
1.028373 0.063279 0.0
1.015958 0.051344 0.0
1.006919 0.040535 0.0
1.000575 0.031159 0.0
0.996312 0.023293 0.0
0.993610 0.016869 0.0
0.992055 0.011742 0.0
0.991320 0.007732 0.0
0.991159 0.004656 0.0
0.991390 0.002343 0.0
0.991878 0.000640 0.0
0.992525 -0.000581 0.0
0.993262 -0.001430 0.0
0.994040 -0.001992 0.0
0.994826 -0.002339 0.0
0.995595 -0.002526 0.0
0.996334 -0.002595 0.0
0.997033 -0.002580 0.0
0.997686 -0.002506 0.0
0.998291 -0.002394 0.0
0.998847 -0.002257 0.0
0.999357 -0.002107 0.0
0.999820 -0.001951 0.0
1.000241 -0.001794 0.0
1.000622 -0.001641 0.0
1.000965 -0.001495 0.0
1.001273 -0.001356 0.0
1.001551 -0.001226 0.0
1.001799 -0.001106 0.0
1.002022 -0.000995 0.0
1.002220 -0.000894 0.0
1.002398 -0.000801 0.0
1.002556 -0.000717 0.0
1.002698 -0.000641 0.0
1.002823 -0.000573 0.0
1.002935 -0.000511 0.0
1.003035 -0.000456 0.0
1.003124 -0.000406 0.0
1.003202 -0.000361 0.0
1.003272 -0.000322 0.0
1.003335 -0.000286 0.0
1.003390 -0.000254 0.0
1.003439 -0.000226 0.0
1.003482 -0.000201 0.0
1.003521 -0.000179 0.0
1.003555 -0.000159 0.0
1.003586 -0.000141 0.0
1.003613 -0.000126 0.0
1.003637 -0.000112 0.0
1.003658 -0.000100 0.0
1.003677 -0.000089 0.0
1.003694 -0.000080 0.0
1.003709 -0.000072 0.0
1.003723 -0.000065 0.0
1.003735 -0.000059 0.0
1.003746 -0.000055 0.0
1.003756 -0.000051 0.0
1.003766 -0.000049 0.0
1.003774 -0.000048 0.0
1.003783 -0.000048 0.0
1.003791 -0.000050 0.0
1.003799 -0.000053 0.0
1.003808 -0.000059 0.0
1.003817 -0.000067 0.0
1.003828 -0.000078 0.0
1.003839 -0.000093 0.0
1.003853 -0.000114 0.0
1.003869 -0.000141 0.0
1.003887 -0.000176 0.0
1.003910 -0.000221 0.0
1.003937 -0.000281 0.0
1.003968 -0.000358 0.0
1.004005 -0.000460 0.0
1.004046 -0.000593 0.0
1.004088 -0.000767 0.0
1.004125 -0.000996 0.0
1.004145 -0.001295 0.0
1.004123 -0.001680 0.0
1.004024 -0.002161 0.0
1.003802 -0.002726 0.0
1.003408 -0.003379 0.0
1.001265 -0.011783 0.0
1.007263 -0.049663 0.0
1.020633 -0.094029 0.0
1.041258 -0.126554 0.0
1.068259 -0.144332 0.0
1.101767 -0.154098 0.0
1.142862 -0.158617 0.0
1.191679 -0.153829 0.0
1.244944 -0.131782 0.0
1.286848 -0.076432 0.0
1.300871 -0.007528 0.0
1.286531 0.055738 0.0
1.252062 0.102643 0.0
1.207558 0.130298 0.0
1.161293 0.140865 0.0
1.118568 0.138556 0.0
1.082094 0.127714 0.0
1.052785 0.112072 0.0
1.030429 0.094541 0.0
1.014173 0.077154 0.0
1.002898 0.061157 0.0
0.995479 0.047180 0.0
0.990914 0.035423 0.0
0.988386 0.025821 0.0
0.987262 0.018166 0.0
0.987076 0.012188 0.0
0.987490 0.007607 0.0
0.988269 0.004162 0.0
0.989254 0.001622 0.0
0.990336 -0.000208 0.0
0.991445 -0.001489 0.0
0.992536 -0.002351 0.0
0.993582 -0.002896 0.0
0.994567 -0.003206 0.0
0.995483 -0.003344 0.0
0.996327 -0.003359 0.0
0.997100 -0.003286 0.0
0.997802 -0.003155 0.0
0.998439 -0.002987 0.0
0.999015 -0.002796 0.0
0.999533 -0.002595 0.0
0.999998 -0.002392 0.0
1.000416 -0.002191 0.0
1.000790 -0.001998 0.0
1.001125 -0.001815 0.0
1.001423 -0.001643 0.0
1.001690 -0.001483 0.0
1.001928 -0.001335 0.0
1.002139 -0.001200 0.0
1.002328 -0.001076 0.0
1.002496 -0.000964 0.0
1.002645 -0.000862 0.0
1.002778 -0.000770 0.0
1.002896 -0.000688 0.0
1.003000 -0.000613 0.0
1.003093 -0.000546 0.0
1.003176 -0.000486 0.0
1.003249 -0.000433 0.0
1.003314 -0.000385 0.0
1.003372 -0.000342 0.0
1.003423 -0.000304 0.0
1.003468 -0.000270 0.0
1.003509 -0.000240 0.0
1.003544 -0.000214 0.0
1.003576 -0.000190 0.0
1.003604 -0.000169 0.0
1.003629 -0.000150 0.0
1.003651 -0.000133 0.0
1.003671 -0.000119 0.0
1.003688 -0.000106 0.0
1.003704 -0.000095 0.0
1.003718 -0.000085 0.0
1.003730 -0.000077 0.0
1.003741 -0.000070 0.0
1.003751 -0.000065 0.0
1.003760 -0.000060 0.0
1.003768 -0.000057 0.0
1.003775 -0.000056 0.0
1.003782 -0.000055 0.0
1.003789 -0.000057 0.0
1.003795 -0.000060 0.0
1.003801 -0.000066 0.0
1.003807 -0.000075 0.0
1.003814 -0.000087 0.0
1.003821 -0.000103 0.0
1.003828 -0.000125 0.0
1.003836 -0.000153 0.0
1.003845 -0.000191 0.0
1.003855 -0.000239 0.0
1.003866 -0.000301 0.0
1.003876 -0.000381 0.0
1.003886 -0.000484 0.0
1.003892 -0.000615 0.0
1.003889 -0.000784 0.0
1.003870 -0.000998 0.0
1.003823 -0.001266 0.0
1.003729 -0.001594 0.0
1.003563 -0.001982 0.0
1.003297 -0.002417 0.0
1.002906 -0.002904 0.0
1.001055 -0.014103 0.0
1.005966 -0.058252 0.0
1.016938 -0.109781 0.0
1.034417 -0.148906 0.0
1.058903 -0.173468 0.0
1.092541 -0.192107 0.0
1.139341 -0.208503 0.0
1.203278 -0.216697 0.0
1.289014 -0.207915 0.0
1.361785 -0.114974 0.0
1.380589 -0.001814 0.0
1.351491 0.093463 0.0
1.294289 0.156591 0.0
1.227528 0.187614 0.0
1.163648 0.193693 0.0
1.108867 0.183233 0.0
1.065268 0.163111 0.0
1.032723 0.138529 0.0
1.009921 0.113244 0.0
0.994989 0.089640 0.0
0.985984 0.068952 0.0
0.981184 0.051605 0.0
0.979216 0.037531 0.0
0.979055 0.026402 0.0
0.979978 0.017785 0.0
0.981496 0.011236 0.0
0.983294 0.006347 0.0
0.985174 0.002763 0.0
0.987020 0.000191 0.0
0.988767 -0.001606 0.0
0.990382 -0.002816 0.0
0.991855 -0.003588 0.0
0.993185 -0.004035 0.0
0.994378 -0.004245 0.0
0.995443 -0.004287 0.0
0.996392 -0.004209 0.0
0.997236 -0.004052 0.0
0.997985 -0.003842 0.0
0.998650 -0.003602 0.0
0.999239 -0.003346 0.0
0.999761 -0.003086 0.0
1.000224 -0.002829 0.0
1.000634 -0.002581 0.0
1.000998 -0.002346 0.0
1.001320 -0.002124 0.0
1.001605 -0.001918 0.0
1.001858 -0.001727 0.0
1.002082 -0.001553 0.0
1.002281 -0.001393 0.0
1.002456 -0.001248 0.0
1.002612 -0.001116 0.0
1.002750 -0.000997 0.0
1.002872 -0.000890 0.0
1.002981 -0.000794 0.0
1.003077 -0.000707 0.0
1.003162 -0.000630 0.0
1.003237 -0.000561 0.0
1.003304 -0.000499 0.0
1.003363 -0.000443 0.0
1.003415 -0.000394 0.0
1.003462 -0.000350 0.0
1.003503 -0.000311 0.0
1.003539 -0.000276 0.0
1.003572 -0.000245 0.0
1.003600 -0.000218 0.0
1.003626 -0.000194 0.0
1.003648 -0.000172 0.0
1.003668 -0.000153 0.0
1.003686 -0.000136 0.0
1.003701 -0.000122 0.0
1.003715 -0.000109 0.0
1.003727 -0.000098 0.0
1.003738 -0.000088 0.0
1.003748 -0.000080 0.0
1.003756 -0.000073 0.0
1.003764 -0.000068 0.0
1.003770 -0.000064 0.0
1.003776 -0.000062 0.0
1.003782 -0.000061 0.0
1.003786 -0.000062 0.0
1.003790 -0.000065 0.0
1.003794 -0.000071 0.0
1.003797 -0.000079 0.0
1.003799 -0.000091 0.0
1.003801 -0.000108 0.0
1.003802 -0.000129 0.0
1.003803 -0.000158 0.0
1.003802 -0.000195 0.0
1.003800 -0.000242 0.0
1.003795 -0.000303 0.0
1.003786 -0.000380 0.0
1.003770 -0.000478 0.0
1.003746 -0.000602 0.0
1.003706 -0.000756 0.0
1.003644 -0.000945 0.0
1.003549 -0.001175 0.0
1.003406 -0.001447 0.0
1.003200 -0.001757 0.0
1.002914 -0.002091 0.0
1.002533 -0.002458 0.0
1.000706 -0.015865 0.0
1.003867 -0.064563 0.0
1.010922 -0.121496 0.0
1.022734 -0.166481 0.0
1.041097 -0.198743 0.0
1.070291 -0.229664 0.0
1.118488 -0.265943 0.0
1.197471 -0.302178 0.0
1.340128 -0.350827 0.0
1.471998 -0.176703 0.0
1.497109 0.016000 0.0
1.440944 0.160912 0.0
1.345273 0.242015 0.0
1.244474 0.269750 0.0
1.156877 0.263035 0.0
1.087981 0.237568 0.0
1.037389 0.202969 0.0
1.002918 0.165687 0.0
0.981540 0.130265 0.0
0.969881 0.099209 0.0
0.964864 0.073404 0.0
0.964058 0.052757 0.0
0.965710 0.036695 0.0
0.968640 0.024470 0.0
0.972097 0.015336 0.0
0.975638 0.008626 0.0
0.979016 0.003781 0.0
0.982114 0.000351 0.0
0.984885 -0.002015 0.0
0.987329 -0.003590 0.0
0.989463 -0.004582 0.0
0.991317 -0.005149 0.0
0.992924 -0.005410 0.0
0.994315 -0.005454 0.0
0.995519 -0.005348 0.0
0.996562 -0.005140 0.0
0.997467 -0.004869 0.0
0.998252 -0.004559 0.0
0.998935 -0.004232 0.0
0.999530 -0.003900 0.0
1.000049 -0.003573 0.0
1.000503 -0.003258 0.0
1.000900 -0.002959 0.0
1.001247 -0.002679 0.0
1.001552 -0.002418 0.0
1.001820 -0.002177 0.0
1.002055 -0.001956 0.0
1.002262 -0.001755 0.0
1.002444 -0.001572 0.0
1.002605 -0.001406 0.0
1.002746 -0.001256 0.0
1.002871 -0.001121 0.0
1.002981 -0.000999 0.0
1.003078 -0.000890 0.0
1.003164 -0.000793 0.0
1.003240 -0.000705 0.0
1.003307 -0.000627 0.0
1.003366 -0.000558 0.0
1.003419 -0.000496 0.0
1.003465 -0.000440 0.0
1.003506 -0.000391 0.0
1.003542 -0.000347 0.0
1.003574 -0.000309 0.0
1.003603 -0.000274 0.0
1.003628 -0.000243 0.0
1.003650 -0.000216 0.0
1.003670 -0.000192 0.0
1.003687 -0.000171 0.0
1.003702 -0.000152 0.0
1.003716 -0.000135 0.0
1.003728 -0.000121 0.0
1.003738 -0.000108 0.0
1.003748 -0.000097 0.0
1.003756 -0.000088 0.0
1.003763 -0.000081 0.0
1.003769 -0.000074 0.0
1.003774 -0.000070 0.0
1.003778 -0.000067 0.0
1.003782 -0.000065 0.0
1.003784 -0.000065 0.0
1.003786 -0.000068 0.0
1.003787 -0.000073 0.0
1.003787 -0.000080 0.0
1.003785 -0.000091 0.0
1.003782 -0.000107 0.0
1.003778 -0.000127 0.0
1.003771 -0.000154 0.0
1.003761 -0.000188 0.0
1.003747 -0.000232 0.0
1.003728 -0.000288 0.0
1.003701 -0.000359 0.0
1.003665 -0.000448 0.0
1.003614 -0.000557 0.0
1.003545 -0.000691 0.0
1.003450 -0.000853 0.0
1.003321 -0.001044 0.0
1.003148 -0.001263 0.0
1.002918 -0.001506 0.0
1.002623 -0.001761 0.0
1.002253 -0.002037 0.0
1.000197 -0.016768 0.0
1.000891 -0.067515 0.0
1.002373 -0.127081 0.0
1.005540 -0.175875 0.0
1.012729 -0.214901 0.0
1.029090 -0.259061 0.0
1.065835 -0.321488 0.0
1.146172 -0.405953 0.0
1.351903 -0.595439 0.0
1.546976 -0.259034 0.0
1.579972 0.040224 0.0
1.512021 0.260805 0.0
1.382283 0.367531 0.0
1.244120 0.383196 0.0
1.130719 0.350587 0.0
1.048690 0.300940 0.0
0.993379 0.245500 0.0
0.960019 0.190986 0.0
0.943443 0.142919 0.0
0.938129 0.103528 0.0
0.939532 0.072699 0.0
0.944474 0.049326 0.0
0.950928 0.032020 0.0
0.957696 0.019448 0.0
0.964133 0.010464 0.0
0.969941 0.004150 0.0
0.975020 -0.000201 0.0
0.979379 -0.003123 0.0
0.983079 -0.005011 0.0
0.986199 -0.006156 0.0
0.988823 -0.006773 0.0
0.991027 -0.007017 0.0
0.992880 -0.007002 0.0
0.994440 -0.006813 0.0
0.995757 -0.006509 0.0
0.996871 -0.006136 0.0
0.997817 -0.005723 0.0
0.998622 -0.005295 0.0
0.999309 -0.004867 0.0
0.999897 -0.004449 0.0
1.000403 -0.004049 0.0
1.000838 -0.003672 0.0
1.001214 -0.003319 0.0
1.001539 -0.002992 0.0
1.001822 -0.002692 0.0
1.002067 -0.002416 0.0
1.002281 -0.002166 0.0
1.002467 -0.001938 0.0
1.002630 -0.001733 0.0
1.002772 -0.001547 0.0
1.002897 -0.001380 0.0
1.003007 -0.001230 0.0
1.003103 -0.001096 0.0
1.003187 -0.000975 0.0
1.003262 -0.000868 0.0
1.003327 -0.000772 0.0
1.003385 -0.000686 0.0
1.003436 -0.000609 0.0
1.003480 -0.000541 0.0
1.003520 -0.000481 0.0
1.003555 -0.000427 0.0
1.003586 -0.000379 0.0
1.003613 -0.000336 0.0
1.003637 -0.000299 0.0
1.003658 -0.000265 0.0
1.003677 -0.000235 0.0
1.003693 -0.000209 0.0
1.003708 -0.000186 0.0
1.003721 -0.000165 0.0
1.003732 -0.000147 0.0
1.003742 -0.000131 0.0
1.003751 -0.000117 0.0
1.003758 -0.000105 0.0
1.003765 -0.000095 0.0
1.003770 -0.000086 0.0
1.003775 -0.000079 0.0
1.003778 -0.000074 0.0
1.003781 -0.000070 0.0
1.003783 -0.000067 0.0
1.003783 -0.000067 0.0
1.003783 -0.000068 0.0
1.003781 -0.000072 0.0
1.003778 -0.000078 0.0
1.003773 -0.000087 0.0
1.003766 -0.000100 0.0
1.003755 -0.000118 0.0
1.003742 -0.000142 0.0
1.003723 -0.000172 0.0
1.003699 -0.000211 0.0
1.003668 -0.000259 0.0
1.003626 -0.000320 0.0
1.003572 -0.000396 0.0
1.003502 -0.000488 0.0
1.003410 -0.000599 0.0
1.003291 -0.000731 0.0
1.003139 -0.000884 0.0
1.002944 -0.001055 0.0
1.002701 -0.001241 0.0
1.002404 -0.001433 0.0
1.002046 -0.001637 0.0
0.999569 -0.016533 0.0
0.997282 -0.066156 0.0
0.991982 -0.124622 0.0
0.984048 -0.173568 0.0
0.974974 -0.215324 0.0
0.967465 -0.267492 0.0
0.968158 -0.350495 0.0
0.998027 -0.487153 0.0
1.154198 -0.876141 0.0
1.261179 -0.151661 0.0
1.261704 0.025758 0.0
1.278271 0.324358 0.0
1.247940 0.464046 0.0
1.181155 0.491629 0.0
1.085424 0.451286 0.0
0.992088 0.375606 0.0
0.929434 0.288799 0.0
0.900493 0.209988 0.0
0.894085 0.146901 0.0
0.899660 0.099285 0.0
0.910661 0.064538 0.0
0.923379 0.039827 0.0
0.935832 0.022612 0.0
0.947083 0.010837 0.0
0.956799 0.002920 0.0
0.964973 -0.002288 0.0
0.971744 -0.005613 0.0
0.977304 -0.007631 0.0
0.981852 -0.008750 0.0
0.985567 -0.009252 0.0
0.988602 -0.009337 0.0
0.991088 -0.009143 0.0
0.993128 -0.008769 0.0
0.994808 -0.008286 0.0
0.996197 -0.007741 0.0
0.997348 -0.007170 0.0
0.998307 -0.006594 0.0
0.999109 -0.006031 0.0
0.999781 -0.005491 0.0
1.000348 -0.004980 0.0
1.000827 -0.004503 0.0
1.001233 -0.004060 0.0
1.001579 -0.003653 0.0
1.001875 -0.003280 0.0
1.002128 -0.002940 0.0
1.002346 -0.002631 0.0
1.002533 -0.002352 0.0
1.002695 -0.002100 0.0
1.002836 -0.001874 0.0
1.002957 -0.001670 0.0
1.003063 -0.001488 0.0
1.003155 -0.001324 0.0
1.003236 -0.001178 0.0
1.003306 -0.001048 0.0
1.003368 -0.000931 0.0
1.003422 -0.000828 0.0
1.003469 -0.000735 0.0
1.003511 -0.000653 0.0
1.003547 -0.000580 0.0
1.003579 -0.000514 0.0
1.003608 -0.000456 0.0
1.003633 -0.000405 0.0
1.003655 -0.000359 0.0
1.003674 -0.000319 0.0
1.003691 -0.000283 0.0
1.003706 -0.000251 0.0
1.003719 -0.000223 0.0
1.003731 -0.000198 0.0
1.003741 -0.000176 0.0
1.003750 -0.000156 0.0
1.003758 -0.000139 0.0
1.003764 -0.000124 0.0
1.003770 -0.000111 0.0
1.003775 -0.000100 0.0
1.003778 -0.000091 0.0
1.003781 -0.000082 0.0
1.003783 -0.000076 0.0
1.003785 -0.000071 0.0
1.003785 -0.000068 0.0
1.003784 -0.000066 0.0
1.003781 -0.000066 0.0
1.003777 -0.000068 0.0
1.003771 -0.000072 0.0
1.003763 -0.000079 0.0
1.003752 -0.000090 0.0
1.003737 -0.000104 0.0
1.003717 -0.000123 0.0
1.003692 -0.000147 0.0
1.003659 -0.000179 0.0
1.003618 -0.000218 0.0
1.003565 -0.000267 0.0
1.003497 -0.000327 0.0
1.003411 -0.000400 0.0
1.003302 -0.000487 0.0
1.003166 -0.000589 0.0
1.002997 -0.000704 0.0
1.002790 -0.000833 0.0
1.002540 -0.000970 0.0
1.002242 -0.001109 0.0
1.001895 -0.001256 0.0
0.998931 -0.015033 0.0
0.993653 -0.060093 0.0
0.981521 -0.113252 0.0
0.962084 -0.157566 0.0
0.934985 -0.195152 0.0
0.897447 -0.242617 0.0
0.841559 -0.320174 0.0
0.751988 -0.457773 0.0
0.348177 -0.786606 0.0
-0.634824 0.279835 0.0
-0.634824 0.000000 0.0
0.205488 0.165626 0.0
0.520881 0.377580 0.0
0.682901 0.482861 0.0
0.756801 0.481884 0.0
0.786849 0.408296 0.0
0.800282 0.305330 0.0
0.813318 0.209364 0.0
0.832270 0.134980 0.0
0.855746 0.082155 0.0
0.880073 0.046341 0.0
0.902549 0.022830 0.0
0.921936 0.007768 0.0
0.938003 -0.001636 0.0
0.951011 -0.007330 0.0
0.961409 -0.010611 0.0
0.969678 -0.012329 0.0
0.976242 -0.013040 0.0
0.981458 -0.013106 0.0
0.985613 -0.012766 0.0
0.988932 -0.012178 0.0
0.991594 -0.011448 0.0
0.993737 -0.010647 0.0
0.995468 -0.009821 0.0
0.996873 -0.009001 0.0
0.998018 -0.008207 0.0
0.998955 -0.007452 0.0
0.999725 -0.006744 0.0
1.000360 -0.006085 0.0
1.000886 -0.005478 0.0
1.001323 -0.004921 0.0
1.001688 -0.004413 0.0
1.001995 -0.003952 0.0
1.002252 -0.003534 0.0
1.002470 -0.003156 0.0
1.002654 -0.002817 0.0
1.002811 -0.002511 0.0
1.002945 -0.002237 0.0
1.003060 -0.001992 0.0
1.003158 -0.001772 0.0
1.003243 -0.001576 0.0
1.003316 -0.001401 0.0
1.003379 -0.001245 0.0
1.003434 -0.001106 0.0
1.003482 -0.000982 0.0
1.003523 -0.000872 0.0
1.003560 -0.000774 0.0
1.003591 -0.000687 0.0
1.003619 -0.000609 0.0
1.003643 -0.000541 0.0
1.003664 -0.000480 0.0
1.003683 -0.000425 0.0
1.003699 -0.000377 0.0
1.003713 -0.000335 0.0
1.003726 -0.000297 0.0
1.003737 -0.000263 0.0
1.003747 -0.000234 0.0
1.003755 -0.000207 0.0
1.003762 -0.000184 0.0
1.003769 -0.000164 0.0
1.003774 -0.000145 0.0
1.003779 -0.000130 0.0
1.003782 -0.000116 0.0
1.003785 -0.000104 0.0
1.003788 -0.000093 0.0
1.003789 -0.000084 0.0
1.003790 -0.000077 0.0
1.003789 -0.000071 0.0
1.003788 -0.000066 0.0
1.003785 -0.000063 0.0
1.003781 -0.000062 0.0
1.003775 -0.000062 0.0
1.003767 -0.000064 0.0
1.003756 -0.000068 0.0
1.003741 -0.000075 0.0
1.003722 -0.000085 0.0
1.003698 -0.000098 0.0
1.003668 -0.000116 0.0
1.003629 -0.000138 0.0
1.003579 -0.000167 0.0
1.003517 -0.000203 0.0
1.003439 -0.000246 0.0
1.003342 -0.000298 0.0
1.003222 -0.000360 0.0
1.003074 -0.000432 0.0
1.002895 -0.000513 0.0
1.002679 -0.000601 0.0
1.002425 -0.000695 0.0
1.002128 -0.000790 0.0
1.001789 -0.000889 0.0
0.998425 -0.012388 0.0
0.990788 -0.049823 0.0
0.973303 -0.093905 0.0
0.944996 -0.129170 0.0
0.904418 -0.155871 0.0
0.845446 -0.185389 0.0
0.751726 -0.227793 0.0
0.582810 -0.291666 0.0
0.236169 -0.323795 0.0
0.000000 0.279835 0.0
-0.000000 -0.000000 0.0
0.000000 0.000000 0.0
0.119110 0.133838 0.0
0.338714 0.330252 0.0
0.503718 0.395589 0.0
0.604828 0.363433 0.0
0.667006 0.274581 0.0
0.716816 0.177267 0.0
0.765004 0.099936 0.0
0.810861 0.047867 0.0
0.851321 0.015842 0.0
0.884812 -0.002639 0.0
0.911387 -0.012725 0.0
0.931993 -0.017816 0.0
0.947827 -0.019992 0.0
0.959974 -0.020495 0.0
0.969315 -0.020053 0.0
0.976527 -0.019093 0.0
0.982126 -0.017867 0.0
0.986494 -0.016527 0.0
0.989920 -0.015162 0.0
0.992619 -0.013826 0.0
0.994756 -0.012549 0.0
0.996455 -0.011349 0.0
0.997810 -0.010233 0.0
0.998897 -0.009205 0.0
0.999770 -0.008264 0.0
1.000476 -0.007407 0.0
1.001047 -0.006629 0.0
1.001512 -0.005925 0.0
1.001892 -0.005291 0.0
1.002203 -0.004720 0.0
1.002459 -0.004207 0.0
1.002670 -0.003747 0.0
1.002845 -0.003336 0.0
1.002991 -0.002968 0.0
1.003112 -0.002639 0.0
1.003215 -0.002346 0.0
1.003300 -0.002084 0.0
1.003373 -0.001851 0.0
1.003434 -0.001644 0.0
1.003487 -0.001459 0.0
1.003531 -0.001295 0.0
1.003569 -0.001149 0.0
1.003602 -0.001020 0.0
1.003630 -0.000904 0.0
1.003654 -0.000802 0.0
1.003675 -0.000711 0.0
1.003694 -0.000631 0.0
1.003709 -0.000559 0.0
1.003723 -0.000496 0.0
1.003735 -0.000440 0.0
1.003745 -0.000390 0.0
1.003754 -0.000346 0.0
1.003762 -0.000306 0.0
1.003769 -0.000272 0.0
1.003775 -0.000241 0.0
1.003780 -0.000214 0.0
1.003785 -0.000189 0.0
1.003788 -0.000168 0.0
1.003791 -0.000149 0.0
1.003794 -0.000133 0.0
1.003796 -0.000118 0.0
1.003797 -0.000105 0.0
1.003798 -0.000094 0.0
1.003798 -0.000085 0.0
1.003797 -0.000076 0.0
1.003795 -0.000069 0.0
1.003792 -0.000064 0.0
1.003788 -0.000059 0.0
1.003782 -0.000056 0.0
1.003775 -0.000054 0.0
1.003765 -0.000054 0.0
1.003752 -0.000055 0.0
1.003735 -0.000058 0.0
1.003714 -0.000062 0.0
1.003686 -0.000070 0.0
1.003652 -0.000079 0.0
1.003608 -0.000092 0.0
1.003554 -0.000109 0.0
1.003486 -0.000130 0.0
1.003401 -0.000156 0.0
1.003297 -0.000187 0.0
1.003169 -0.000224 0.0
1.003014 -0.000266 0.0
1.002828 -0.000313 0.0
1.002608 -0.000365 0.0
1.002351 -0.000420 0.0
1.002056 -0.000474 0.0
1.001722 -0.000531 0.0
0.998158 -0.008971 0.0
0.989264 -0.036710 0.0
0.968998 -0.069266 0.0
0.936514 -0.093018 0.0
0.890992 -0.105923 0.0
0.827928 -0.113301 0.0
0.737169 -0.115401 0.0
0.602495 -0.100468 0.0
0.440029 0.001307 0.0
0.179144 0.160125 0.0
0.000000 0.000000 0.0
-0.000000 -0.000000 0.0
0.000000 0.000000 0.0
0.101329 0.114879 0.0
0.288921 0.244815 0.0
0.425705 0.276313 0.0
0.521102 0.204127 0.0
0.611087 0.107927 0.0
0.696865 0.035309 0.0
0.770803 -0.007301 0.0
0.829585 -0.028232 0.0
0.874015 -0.036485 0.0
0.906772 -0.038210 0.0
0.930739 -0.036904 0.0
0.948328 -0.034327 0.0
0.961346 -0.031326 0.0
0.971079 -0.028296 0.0
0.978428 -0.025412 0.0
0.984024 -0.022744 0.0
0.988318 -0.020313 0.0
0.991634 -0.018117 0.0
0.994207 -0.016143 0.0
0.996214 -0.014374 0.0
0.997784 -0.012792 0.0
0.999017 -0.011378 0.0
0.999987 -0.010117 0.0
1.000754 -0.008993 0.0
1.001360 -0.007991 0.0
1.001841 -0.007098 0.0
1.002224 -0.006304 0.0
1.002529 -0.005597 0.0
1.002772 -0.004968 0.0
1.002967 -0.004409 0.0
1.003124 -0.003913 0.0
1.003250 -0.003471 0.0
1.003351 -0.003079 0.0
1.003433 -0.002731 0.0
1.003500 -0.002422 0.0
1.003554 -0.002148 0.0
1.003599 -0.001904 0.0
1.003635 -0.001688 0.0
1.003665 -0.001497 0.0
1.003689 -0.001327 0.0
1.003710 -0.001176 0.0
1.003727 -0.001042 0.0