# vtk DataFile Version 3.0
Scalar Field
ASCII
DATASET RECTILINEAR_GRID
DIMENSIONS 100 26 1
X_COORDINATES 100 double
0.050000 0.150000 0.250000 0.350000 0.450000 0.550000 0.650000 0.750000 0.850000 0.950000 1.050000 1.150000 1.250000 1.350000 1.450000 1.550000 1.650000 1.750000 1.850000 1.950000 2.050000 2.150000 2.250000 2.350000 2.450000 2.550000 2.650000 2.750000 2.850000 2.950000 3.050000 3.150000 3.250000 3.350000 3.450000 3.550000 3.650000 3.750000 3.850000 3.950000 4.050000 4.150000 4.250000 4.350000 4.450000 4.550000 4.650000 4.750000 4.850000 4.950000 5.050000 5.150000 5.250000 5.350000 5.450000 5.550000 5.650000 5.750000 5.850000 5.950000 6.050000 6.150000 6.250000 6.350000 6.450000 6.550000 6.650000 6.750000 6.850000 6.950000 7.050000 7.150000 7.250000 7.350000 7.450000 7.550000 7.650000 7.750000 7.850000 7.950000 8.050000 8.150000 8.250000 8.350000 8.450000 8.550000 8.650000 8.750000 8.850000 8.950000 9.050000 9.150000 9.250000 9.350000 9.450000 9.550000 9.650000 9.750000 9.850000 9.950000 
Y_COORDINATES 26 double
0.050000 0.150000 0.250000 0.350000 0.450000 0.550000 0.650000 0.750000 0.850000 0.950000 1.050000 1.150000 1.250000 1.350000 1.450000 1.550000 1.650000 1.750000 1.850000 1.950000 2.050000 2.150000 2.250000 2.350000 2.450000 2.550000 
Z_COORDINATES 1 double
0.0
POINT_DATA 2600
SCALARS Skalarfeld double 1
LOOKUP_TABLE default
0.136178
0.132171
0.123577
0.109977
0.091119
0.066881
0.037369
0.003064
-0.035020
-0.075262
-0.115507
-0.153376
-0.186650
-0.213584
-0.233081
-0.244589
-0.248262
-0.244879
-0.235594
-0.221754
-0.204740
-0.185839
-0.166165
-0.146623
-0.127897
-0.110462
-0.094601
-0.080439
-0.067976
-0.057123
-0.047741
-0.039667
-0.032735
-0.026791
-0.021700
-0.017345
-0.013628
-0.010450
-0.007747
-0.005457
-0.003527
-0.001910
-0.000561
0.000556
0.001475
0.002225
0.002832
0.003318
0.003703
0.004002
0.004229
0.004396
0.004513
0.004588
0.004628
0.004639
0.004625
0.004590
0.004538
0.004472
0.004393
0.004305
0.004207
0.004102
0.003991
0.003874
0.003753
0.003628
0.003500
0.003369
0.003236
0.003100
0.002963
0.002824
0.002684
0.002542
0.002400
0.002257
0.002113
0.001968
0.001823
0.001677
0.001531
0.001383
0.001236
0.001087
0.000938
0.000787
0.000636
0.000482
0.000327
0.000169
0.000007
-0.000161
-0.000336
-0.000523
-0.000730
-0.000971
-0.001281
-0.001463
0.139810
0.136660
0.128278
0.114597
0.095402
0.070516
0.039974
0.004217
-0.035694
-0.077975
-0.120179
-0.159661
-0.194073
-0.221661
-0.241355
-0.252657
-0.255736
-0.251463
-0.241094
-0.226082
-0.207902
-0.187917
-0.167295
-0.146972
-0.127638
-0.109762
-0.093609
-0.079280
-0.066749
-0.055902
-0.046576
-0.038589
-0.031759
-0.025924
-0.020937
-0.016676
-0.013036
-0.009944
-0.007321
-0.005102
-0.003233
-0.001668
-0.000363
0.000718
0.001606
0.002332
0.002918
0.003388
0.003759
0.004047
0.004265
0.004425
0.004536
0.004607
0.004643
0.004651
0.004634
0.004598
0.004544
0.004477
0.004397
0.004307
0.004209
0.004104
0.003992
0.003875
0.003754
0.003629
0.003500
0.003369
0.003236
0.003100
0.002963
0.002824
0.002684
0.002543
0.002400
0.002257
0.002113
0.001968
0.001823
0.001677
0.001531
0.001384
0.001236
0.001088
0.000938
0.000788
0.000637
0.000484
0.000330
0.000173
0.000012
-0.000153
-0.000324
-0.000503
-0.000693
-0.000897
-0.001105
-0.001276
0.149213
0.146271
0.137970
0.124110
0.104332
0.078258
0.045705
0.006969
-0.036841
-0.083605
-0.130118
-0.173080
-0.209874
-0.238776
-0.258888
-0.269724
-0.271532
-0.265389
-0.252756
-0.235296
-0.214681
-0.192435
-0.169838
-0.147886
-0.127285
-0.108483
-0.091709
-0.077012
-0.064315
-0.053454
-0.044222
-0.036398
-0.029770
-0.024151
-0.019379
-0.015324
-0.011877
-0.008958
-0.006488
-0.004403
-0.002650
-0.001183
0.000038
0.001048
0.001878
0.002555
0.003101
0.003538
0.003881
0.004147
0.004347
0.004492
0.004591
0.004651
0.004679
0.004680
0.004658
0.004618
0.004561
0.004490
0.004408
0.004317
0.004217
0.004110
0.003997
0.003879
0.003757
0.003632
0.003503
0.003371
0.003237
0.003102
0.002964
0.002825
0.002685
0.002543
0.002401
0.002258
0.002114
0.001969
0.001824
0.001678
0.001531
0.001384
0.001237
0.001089
0.000940
0.000791
0.000640
0.000488
0.000335
0.000180
0.000022
-0.000138
-0.000302
-0.000471
-0.000643
-0.000816
-0.000980
-0.001135
0.163992
0.161133
0.152895
0.138867
0.118392
0.090690
0.055112
0.011580
-0.038822
-0.093475
-0.147399
-0.196006
-0.236379
-0.267042
-0.287451
-0.297209
-0.296780
-0.287508
-0.271161
-0.249741
-0.225233
-0.199414
-0.173734
-0.149271
-0.126746
-0.106565
-0.088884
-0.073667
-0.060750
-0.049890
-0.040811
-0.033234
-0.026905
-0.021601
-0.017142
-0.013382
-0.010211
-0.007539
-0.005287
-0.003393
-0.001804
-0.000477
0.000625
0.001535
0.002282
0.002888
0.003376
0.003764
0.004068
0.004301
0.004474
0.004596
0.004677
0.004723
0.004738
0.004729
0.004699
0.004651
0.004589
0.004514
0.004428
0.004333
0.004230
0.004121
0.004007
0.003888
0.003764
0.003638
0.003508
0.003375
0.003241
0.003105
0.002967
0.002827
0.002687
0.002545
0.002402
0.002259
0.002115
0.001970
0.001825
0.001679
0.001533
0.001386
0.001239
0.001091
0.000943
0.000794
0.000644
0.000494
0.000342
0.000190
0.000036
-0.000120
-0.000277
-0.000435
-0.000593
-0.000745
-0.000887
-0.001031
0.183995
0.181261
0.173269
0.159341
0.138362
0.108862
0.069299
0.018702
-0.042165
-0.110279
-0.176121
-0.232814
-0.277642
-0.310064
-0.330173
-0.337818
-0.333775
-0.319644
-0.297638
-0.270281
-0.240039
-0.209052
-0.178992
-0.151034
-0.125887
-0.103875
-0.085031
-0.069182
-0.056033
-0.045225
-0.036383
-0.029155
-0.023227
-0.018340
-0.014286
-0.010906
-0.008090
-0.005735
-0.003762
-0.002109
-0.000727
0.000423
0.001376
0.002160
0.002800
0.003318
0.003732
0.004059
0.004312
0.004503
0.004641
0.004735
0.004792
0.004818
0.004818
0.004795
0.004754
0.004698
0.004628
0.004546
0.004455
0.004356
0.004250
0.004138
0.004021
0.003899
0.003774
0.003646
0.003515
0.003382
0.003246
0.003109
0.002970
0.002831
0.002689
0.002547
0.002404
0.002261
0.002117
0.001972
0.001826
0.001681
0.001534
0.001388
0.001241
0.001093
0.000946
0.000798
0.000649
0.000500
0.000351
0.000201
0.000050
-0.000100
-0.000251
-0.000400
-0.000546
-0.000686
-0.000815
-0.000953
0.208992
0.206533
0.199214
0.186048
0.165302
0.134435
0.090263
0.029788
-0.047568
-0.139589
-0.223807
-0.290352
-0.339188
-0.372482
-0.391063
-0.395230
-0.385791
-0.364457
-0.334135
-0.298197
-0.259837
-0.221691
-0.185700
-0.153114
-0.124583
-0.100280
-0.080040
-0.063487
-0.050137
-0.039469
-0.030981
-0.024221
-0.018810
-0.014443
-0.010886
-0.007970
-0.005586
-0.003611
-0.001967
-0.000598
0.000541
0.001484
0.002261
0.002897
0.003413
0.003828
0.004155
0.004410
0.004603
0.004745
0.004842
0.004902
0.004932
0.004934
0.004915
0.004877
0.004823
0.004755
0.004676
0.004587
0.004490
0.004385
0.004275
0.004159
0.004039
0.003915
0.003787
0.003657
0.003525
0.003390
0.003253
0.003115
0.002976
0.002835
0.002693
0.002551
0.002407
0.002263
0.002119
0.001974
0.001828
0.001683
0.001536
0.001390
0.001243
0.001096
0.000949
0.000802
0.000655
0.000507
0.000360
0.000212
0.000065
-0.000081
-0.000226
-0.000368
-0.000506
-0.000638
-0.000760
-0.000894
0.238479
0.236539
0.230604
0.219392
0.200479
0.169859
0.121556
0.048133
-0.055890
-0.193297
-0.302792
-0.376067
-0.424568
-0.456790
-0.473076
-0.473052
-0.456431
-0.424927
-0.382788
-0.334854
-0.285403
-0.237708
-0.193988
-0.155512
-0.122782
-0.095721
-0.073876
-0.056586
-0.043106
-0.032702
-0.024707
-0.018551
-0.013775
-0.010027
-0.007047
-0.004692
-0.002798
-0.001250
0.000025
0.001078
0.001947
0.002662
0.003245
0.003718
0.004097
0.004396
0.004628
0.004804
0.004931
0.005017
0.005069
0.005092
0.005090
0.005067
0.005026
0.004970
0.004902
0.004821
0.004732
0.004634
0.004530
0.004419
0.004304
0.004184
0.004060
0.003933
0.003803
0.003670
0.003536
0.003400
0.003262
0.003122
0.002982
0.002840
0.002698
0.002555
0.002411
0.002267
0.002122
0.001976
0.001831
0.001685
0.001539
0.001392
0.001246
0.001099
0.000953
0.000806
0.000660
0.000514
0.000368
0.000223
0.000079
-0.000063
-0.000203
-0.000340
-0.000473
-0.000599
-0.000716
-0.000848
0.271504
0.270401
0.266808
0.259312
0.244990
0.218311
0.169275
0.081422
-0.068228
-0.297436
-0.428499
-0.488475
-0.523998
-0.553493
-0.572363
-0.571004
-0.546624
-0.501876
-0.444022
-0.380387
-0.316746
-0.257097
-0.203884
-0.158300
-0.120594
-0.090343
-0.066715
-0.048677
-0.035158
-0.025156
-0.017797
-0.012369
-0.008327
-0.005276
-0.002947
-0.001220
0.000144
0.001238
0.002126
0.002847
0.003434
0.003908
0.004288
0.004589
0.004823
0.005002
0.005133
0.005225
0.005282
0.005311
0.005315
0.005298
0.005263
0.005212
0.005148
0.005073
0.004988
0.004895
0.004794
0.004687
0.004575
0.004458
0.004337
0.004212
0.004084
0.003953
0.003821
0.003686
0.003549
0.003411
0.003271
0.003131
0.002989
0.002847
0.002703
0.002559
0.002415
0.002270
0.002125
0.001979
0.001833
0.001687
0.001541
0.001395
0.001249
0.001102
0.000956
0.000811
0.000665
0.000521
0.000377
0.000234
0.000092
-0.000047
-0.000184
-0.000317
-0.000445
-0.000568
-0.000683
-0.000814
0.306532
0.306591
0.306368
0.304675
0.298777
0.282614
0.242584
0.147997
-0.079848
-0.513719
-0.608303
-0.599348
-0.600415
-0.626645
-0.665997
-0.676283
-0.647052
-0.587736
-0.511967
-0.430665
-0.351278
-0.278471
-0.214849
-0.161493
-0.118365
-0.084668
-0.059152
-0.040375
-0.026889
-0.017380
-0.010738
-0.006091
-0.002807
-0.000452
0.001102
0.002223
0.003068
0.003721
0.004230
0.004626
0.004932
0.005167
0.005344
0.005473
0.005563
0.005620
0.005650
0.005657
0.005644
0.005614
0.005569
0.005511
0.005443
0.005364
0.005277
0.005182
0.005081
0.004973
0.004861
0.004744
0.004624
0.004499
0.004372
0.004242
0.004110
0.003976
0.003840
0.003702
0.003563
0.003423
0.003282
0.003140
0.002997
0.002853
0.002709
0.002565
0.002420
0.002274
0.002128
0.001982
0.001836
0.001690
0.001544
0.001397
0.001251
0.001105
0.000960
0.000815
0.000670
0.000526
0.000384
0.000242
0.000103
-0.000034
-0.000168
-0.000299
-0.000424
-0.000544
-0.000658
-0.000789
0.341441
0.342872
0.346742
0.352542
0.358835
0.361617
0.349358
0.286322
0.016652
-0.901875
-0.805194
-0.654164
-0.618547
-0.635894
-0.703503
-0.753810
-0.728200
-0.659007
-0.569420
-0.474047
-0.381725
-0.297744
-0.225007
-0.164660
-0.116558
-0.079661
-0.052392
-0.032941
-0.019502
-0.010446
-0.004430
-0.000440
0.002231
0.003826
0.004738
0.005349
0.005764
0.006041
0.006218
0.006322
0.006371
0.006383
0.006368
0.006333
0.006284
0.006225
0.006158
0.006083
0.006002
0.005916
0.005824
0.005726
0.005625
0.005518
0.005408
0.005293
0.005176
0.005054
0.004930
0.004804
0.004674
0.004543
0.004410
0.004275
0.004138
0.004000
0.003861
0.003720
0.003579
0.003437
0.003294
0.003150
0.003006
0.002861
0.002716
0.002570
0.002424
0.002278
0.002132
0.001986
0.001839
0.001693
0.001546
0.001400
0.001254
0.001108
0.000963
0.000818
0.000674
0.000531
0.000389
0.000249
0.000111
-0.000024
-0.000156
-0.000285
-0.000409
-0.000527
-0.000640
-0.000771
0.373725
0.376497
0.384420
0.397907
0.417559
0.443846
0.475872
0.506311
0.571823
-0.165026
-0.718518
-0.631843
-0.626685
-0.641782
-0.695225
-0.760389
-0.757949
-0.688062
-0.595240
-0.495417
-0.397910
-0.308617
-0.231006
-0.166602
-0.115443
-0.076511
-0.048111
-0.028223
-0.014793
-0.005962
-0.000227
0.003514
0.005715
0.006756
0.007409
0.007794
0.007981
0.008024
0.007965
0.007840
0.007677
0.007497
0.007313
0.007132
0.006959
0.006794
0.006638
0.006489
0.006345
0.006206
0.006070
0.005936
0.005803
0.005670
0.005537
0.005404
0.005271
0.005136
0.005000
0.004864
0.004726
0.004588
0.004448
0.004308
0.004167
0.004025
0.003882
0.003739
0.003595
0.003451
0.003306
0.003160
0.003015
0.002869
0.002723
0.002576
0.002429
0.002283
0.002136
0.001989
0.001842
0.001695
0.001549
0.001402
0.001256
0.001110
0.000965
0.000820
0.000677
0.000534
0.000393
0.000254
0.000117
-0.000017
-0.000148
-0.000276
-0.000399
-0.000517
-0.000629
-0.000760
0.400946
0.404725
0.415693
0.434913
0.464416
0.507736
0.571064
0.665136
0.797842
0.837345
0.000000
-0.639692
-0.647540
-0.654929
-0.684995
-0.722252
-0.727237
-0.667680
-0.580961
-0.486452
-0.392664
-0.305745
-0.229551
-0.165926
-0.115159
-0.076429
-0.048157
-0.028353
-0.014924
-0.005931
0.000151
0.003953
0.006011
0.007519
0.008555
0.009182
0.009468
0.009495
0.009344
0.009087
0.008777
0.008452
0.008134
0.007834
0.007557
0.007304
0.007072
0.006858
0.006660
0.006475
0.006300
0.006133
0.005972
0.005815
0.005662
0.005512
0.005363
0.005216
0.005069
0.004923
0.004778
0.004632
0.004487
0.004341
0.004196
0.004050
0.003904
0.003758
0.003611
0.003465
0.003318
0.003171
0.003024
0.002877
0.002729
0.002582
0.002435
0.002287
0.002140
0.001992
0.001845
0.001698
0.001551
0.001404
0.001258
0.001112
0.000967
0.000822
0.000679
0.000536
0.000396
0.000257
0.000120
-0.000014
-0.000144
-0.000271
-0.000394
-0.000511
-0.000624
-0.000756
0.421266
0.425513
0.437854
0.459439
0.492351
0.539771
0.605823
0.693126
0.791549
0.876849
0.803804
0.000000
-0.658301
-0.669063
-0.665612
-0.670548
-0.654097
-0.606306
-0.529385
-0.446811
-0.363968
-0.286928
-0.219171
-0.162263
-0.116400
-0.080929
-0.054536
-0.035546
-0.022100
-0.012308
-0.005718
-0.001093
0.002720
0.005715
0.007889
0.009296
0.010056
0.010323
0.010253
0.009982
0.009608
0.009198
0.008791
0.008408
0.008055
0.007734
0.007443
0.007179
0.006938
0.006715
0.006507
0.006312
0.006127
0.005950
0.005779
0.005613
0.005451
0.005292
0.005136
0.004981
0.004828
0.004676
0.004525
0.004374
0.004224
0.004075
0.003926
0.003777
0.003628
0.003479
0.003330
0.003182
0.003033
0.002885
0.002736
0.002588
0.002440
0.002292
0.002143
0.001995
0.001848
0.001700
0.001553
0.001406
0.001259
0.001113
0.000967
0.000823
0.000679
0.000537
0.000396
0.000257
0.000121
-0.000013
-0.000144
-0.000271
-0.000393
-0.000511
-0.000624
-0.000757
0.433820
0.437972
0.449969
0.470641
0.501302
0.543401
0.597693
0.663014
0.732269
0.760256
0.730759
0.618168
0.000000
-0.657560
-0.646057
-0.604114
-0.572782
-0.522188
-0.453951
-0.381173
-0.314491
-0.253637
-0.201010
-0.156990
-0.120844
-0.091824
-0.068888
-0.051069
-0.037218
-0.026464
-0.017495
-0.009766
-0.003273
0.001886
0.005692
0.008246
0.009753
0.010465
0.010633
0.010466
0.010119
0.009695
0.009254
0.008828
0.008432
0.008070
0.007741
0.007442
0.007170
0.006919
0.006687
0.006470
0.006265
0.006071
0.005885
0.005706
0.005532
0.005363
0.005198
0.005035
0.004876
0.004718
0.004561
0.004406
0.004252
0.004099
0.003947
0.003795
0.003644
0.003493
0.003343
0.003193
0.003043
0.002893
0.002743
0.002594
0.002445
0.002296
0.002147
0.001999
0.001850
0.001702
0.001554
0.001407
0.001260
0.001113
0.000967
0.000822
0.000678
0.000536
0.000394
0.000255
0.000118
-0.000016
-0.000147
-0.000275
-0.000398
-0.000516
-0.000630
-0.000764
0.438770
0.442383
0.452739
0.470218
0.495331
0.528503
0.569036
0.612518
0.646449
0.643948
0.587353
0.505577
0.340283
0.000000
-0.581786
-0.517516
-0.500994
-0.437778
-0.362687
-0.300651
-0.251485
-0.210737
-0.178615
-0.153028
-0.130537
-0.110042
-0.090495
-0.073077
-0.057102
-0.042855
-0.030172
-0.019150
-0.009947
-0.002663
0.002738
0.006442
0.008744
0.009983
0.010483
0.010516
0.010282
0.009916
0.009499
0.009079
0.008676
0.008302
0.007957
0.007641
0.007351
0.007083
0.006834
0.006602
0.006383
0.006176
0.005978
0.005789
0.005605
0.005428
0.005255
0.005086
0.004920
0.004757
0.004596
0.004436
0.004279
0.004122
0.003967
0.003813
0.003659
0.003507
0.003355
0.003203
0.003052
0.002901
0.002750
0.002600
0.002450
0.002300
0.002151
0.002001
0.001852
0.001704
0.001555
0.001407
0.001260
0.001113
0.000966
0.000821
0.000676
0.000533
0.000391
0.000251
0.000113
-0.000022
-0.000154
-0.000283
-0.000407
-0.000527
-0.000641
-0.000777
0.437091
0.439940
0.448038
0.461419
0.479933
0.502767
0.527677
0.549215
0.556567
0.532037
0.457639
0.321202
0.174989
-0.249239
-0.564770
-0.533470
-0.476325
-0.379439
-0.285770
-0.218449
-0.185168
-0.166122
-0.159182
-0.155229
-0.146665
-0.133850
-0.113966
-0.093003
-0.073480
-0.055779
-0.040106
-0.026645
-0.015526
-0.006764
-0.000233
0.004330
0.007281
0.009005
0.009863
0.010155
0.010103
0.009861
0.009527
0.009158
0.008786
0.008428
0.008089
0.007773
0.007479
0.007205
0.006948
0.006707
0.006480
0.006264
0.006058
0.005860
0.005670
0.005485
0.005306
0.005131
0.004960
0.004792
0.004627
0.004464
0.004303
0.004144
0.003986
0.003830
0.003674
0.003520
0.003366
0.003213
0.003060
0.002908
0.002756
0.002605
0.002454
0.002304
0.002154
0.002004
0.001854
0.001705
0.001556
0.001408
0.001259
0.001112
0.000965
0.000818
0.000673
0.000529
0.000386
0.000245
0.000105
-0.000031
-0.000165
-0.000295
-0.000421
-0.000542
-0.000658
-0.000795
0.430168
0.432153
0.437715
0.446585
0.458112
0.470870
0.482022
0.486314
0.474967
0.434905
0.348830
0.191798
-0.088441
-0.673468
-0.596071
-0.500835
-0.426780
-0.335071
-0.247620
-0.184137
-0.147525
-0.143552
-0.155443
-0.167658
-0.164917
-0.146705
-0.125670
-0.103350
-0.082060
-0.062698
-0.045672
-0.031178
-0.019277
-0.009895
-0.002836
0.002202
0.005587
0.007700
0.008897
0.009469
0.009640
0.009569
0.009360
0.009081
0.008771
0.008454
0.008142
0.007842
0.007556
0.007285
0.007029
0.006785
0.006554
0.006334
0.006123
0.005920
0.005724
0.005535
0.005351
0.005171
0.004996
0.004824
0.004656
0.004490
0.004326
0.004164
0.004004
0.003845
0.003688
0.003531
0.003376
0.003222
0.003068
0.002915
0.002762
0.002610
0.002459
0.002307
0.002157
0.002006
0.001856
0.001706
0.001557
0.001407
0.001259
0.001110
0.000962
0.000815
0.000669
0.000523
0.000379
0.000236
0.000095
-0.000043
-0.000179
-0.000311
-0.000439
-0.000562
-0.000680
-0.000818
0.419568
0.420698
0.423793
0.428410
0.433652
0.437885
0.438308
0.430409
0.407416
0.359905
0.275352
0.136740
-0.078575
-0.358883
-0.418846
-0.398606
-0.350164
-0.288615
-0.227490
-0.177987
-0.148414
-0.148070
-0.161532
-0.167274
-0.160494
-0.144318
-0.124284
-0.103100
-0.082605
-0.063807
-0.047218
-0.033067
-0.021397
-0.012113
-0.005011
0.000193
0.003830
0.006239
0.007735
0.008581
0.008987
0.009107
0.009046
0.008879
0.008652
0.008394
0.008124
0.007853
0.007586
0.007327
0.007078
0.006838
0.006607
0.006386
0.006173
0.005967
0.005769
0.005576
0.005388
0.005206
0.005027
0.004852
0.004681
0.004512
0.004346
0.004182
0.004020
0.003859
0.003700
0.003542
0.003386
0.003230
0.003075
0.002921
0.002768
0.002615
0.002462
0.002311
0.002159
0.002008
0.001857
0.001707
0.001557
0.001407
0.001257
0.001108
0.000959
0.000811
0.000663
0.000516
0.000370
0.000226
0.000083
-0.000058
-0.000197
-0.000332
-0.000462
-0.000588
-0.000708
-0.000848
0.406846
0.407220
0.408158
0.409158
0.409279
0.406953
0.399747
0.384099
0.355140
0.306713
0.231731
0.123355
-0.019890
-0.177859
-0.258934
-0.280574
-0.267781
-0.237454
-0.201905
-0.171465
-0.153757
-0.150772
-0.153534
-0.152240
-0.144629
-0.131157
-0.114300
-0.096130
-0.078168
-0.061390
-0.046365
-0.033375
-0.022512
-0.013720
-0.006843
-0.001654
0.002117
0.004746
0.006495
0.007593
0.008225
0.008537
0.008632
0.008588
0.008454
0.008267
0.008049
0.007815
0.007576
0.007335
0.007098
0.006867
0.006641
0.006422
0.006209
0.006003
0.005803
0.005609
0.005419
0.005234
0.005053
0.004876
0.004702
0.004531
0.004363
0.004197
0.004033
0.003871
0.003711
0.003552
0.003394
0.003237
0.003082
0.002927
0.002772
0.002619
0.002466
0.002313
0.002161
0.002010
0.001858
0.001707
0.001556
0.001406
0.001256
0.001105
0.000956
0.000806
0.000657
0.000509
0.000361
0.000214
0.000068
-0.000076
-0.000218
-0.000356
-0.000491
-0.000620
-0.000742
-0.000885
0.393383
0.393138
0.392334
0.390487
0.386735
0.379731
0.367531
0.347513
0.316411
0.270575
0.206650
0.123046
0.023263
-0.079004
-0.149959
-0.186003
-0.195358
-0.187980
-0.172894
-0.157610
-0.147120
-0.142442
-0.139808
-0.135642
-0.127945
-0.116617
-0.102753
-0.087653
-0.072442
-0.057949
-0.044722
-0.033078
-0.023155
-0.014958
-0.008393
-0.003297
0.000534
0.003320
0.005273
0.006586
0.007422
0.007913
0.008160
0.008238
0.008202
0.008090
0.007930
0.007740
0.007532
0.007315
0.007095
0.006875
0.006657
0.006443
0.006233
0.006028
0.005828
0.005633
0.005443
0.005256
0.005074
0.004895
0.004720
0.004547
0.004378
0.004210
0.004045
0.003882
0.003720
0.003560
0.003401
0.003244
0.003087
0.002931
0.002776
0.002622
0.002469
0.002316
0.002163
0.002011
0.001859
0.001707
0.001556
0.001405
0.001254
0.001103
0.000952
0.000801
0.000651
0.000500
0.000350
0.000201
0.000052
-0.000096
-0.000242
-0.000385
-0.000525
-0.000658
-0.000785
-0.000929
0.380308
0.379589
0.377460
0.373505
0.367002
0.356873
0.341661
0.319543
0.288458
0.246424
0.192150
0.126074
0.051967
-0.021566
-0.080209
-0.118709
-0.138802
-0.145268
-0.143568
-0.138582
-0.133653
-0.129881
-0.126247
-0.121319
-0.114078
-0.104398
-0.092827
-0.080178
-0.067256
-0.054728
-0.043085
-0.032646
-0.023582
-0.015945
-0.009693
-0.004717
-0.000869
0.002023
0.004133
0.005621
0.006631
0.007282
0.007667
0.007861
0.007920
0.007884
0.007782
0.007638
0.007465
0.007274
0.007072
0.006866
0.006658
0.006451
0.006246
0.006043
0.005845
0.005651
0.005460
0.005273
0.005090
0.004910
0.004734
0.004560
0.004389
0.004221
0.004054
0.003890
0.003728
0.003567
0.003407
0.003249
0.003091
0.002935
0.002780
0.002625
0.002471
0.002317
0.002164
0.002012
0.001859
0.001707
0.001555
0.001403
0.001251
0.001100
0.000948
0.000796
0.000644
0.000492
0.000339
0.000187
0.000034
-0.000118
-0.000269
-0.000418
-0.000564
-0.000704
-0.000836
-0.000984
0.368494
0.367425
0.364335
0.358896
0.350538
0.338447
0.321578
0.298719
0.268641
0.230375
0.183652
0.129524
0.071061
0.013680
-0.035538
-0.072598
-0.097128
-0.111100
-0.117504
-0.119328
-0.118833
-0.117125
-0.114232
-0.109739
-0.103309
-0.094969
-0.085099
-0.074266
-0.063078
-0.052077
-0.041694
-0.032237
-0.023889
-0.016733
-0.010764
-0.005916
-0.002078
0.000883
0.003109
0.004737
0.005890
0.006676
0.007183
0.007482
0.007628
0.007664
0.007619
0.007519
0.007381
0.007217
0.007036
0.006844
0.006647
0.006448
0.006248
0.006050
0.005854
0.005661
0.005471
0.005284
0.005101
0.004921
0.004744
0.004569
0.004398
0.004229
0.004062
0.003897
0.003733
0.003572
0.003412
0.003253
0.003095
0.002938
0.002782
0.002627
0.002473
0.002319
0.002165
0.002012
0.001859
0.001707
0.001554
0.001402
0.001249
0.001097
0.000944
0.000791
0.000637
0.000483
0.000328
0.000173
0.000016
-0.000141
-0.000298
-0.000455
-0.000610
-0.000759
-0.000898
-0.001051
0.358584
0.357257
0.353487
0.347040
0.337489
0.324236
0.306555
0.283667
0.254879
0.219799
0.178629
0.132509
0.083799
0.036048
-0.006667
-0.041516
-0.067549
-0.085377
-0.096515
-0.102734
-0.105551
-0.105939
-0.104293
-0.100684
-0.095167
-0.087927
-0.079317
-0.069802
-0.059881
-0.050015
-0.040591
-0.031896
-0.024120
-0.017359
-0.011635
-0.006907
-0.003094
-0.000091
0.002220
0.003955
0.005224
0.006122
0.006733
0.007123
0.007346
0.007446
0.007454
0.007395
0.007290
0.007151
0.006990
0.006813
0.006628
0.006436
0.006243
0.006049
0.005856
0.005665
0.005476
0.005290
0.005107
0.004927
0.004750
0.004575
0.004404
0.004234
0.004066
0.003901
0.003737
0.003575
0.003415
0.003255
0.003097
0.002940
0.002784
0.002629
0.002474
0.002319
0.002166
0.002012
0.001859
0.001706
0.001553
0.001400
0.001247
0.001094
0.000940
0.000786
0.000631
0.000475
0.000318
0.000160
-0.000001
-0.000163
-0.000328
-0.000494
-0.000660
-0.000823
-0.000975
-0.001135
0.351053
0.349506
0.345240
0.338121
0.327833
0.313935
0.295919
0.273291
0.245684
0.213019
0.175699
0.134793
0.092142
0.050242
0.011786
-0.021132
-0.047468
-0.067198
-0.081021
-0.089971
-0.095076
-0.097137
-0.096661
-0.093943
-0.089244
-0.082860
-0.075163
-0.066579
-0.057554
-0.048502
-0.039776
-0.031650
-0.024309
-0.017858
-0.012331
-0.007706
-0.003924
-0.000896
0.001475
0.003292
0.004651
0.005640
0.006335
0.006800
0.007089
0.007243
0.007297
0.007275
0.007199
0.007083
0.006940
0.006777
0.006602
0.006419
0.006231
0.006042
0.005852
0.005663
0.005476
0.005292
0.005109
0.004930
0.004753
0.004578
0.004406
0.004237
0.004069
0.003903
0.003740
0.003577
0.003416
0.003257
0.003099
0.002941
0.002785
0.002629
0.002474
0.002320
0.002166
0.002012
0.001859
0.001706
0.001552
0.001399
0.001246
0.001092
0.000937
0.000782
0.000626
0.000469
0.000310
0.000148
-0.000016
-0.000183
-0.000355
-0.000532
-0.000714
-0.000897
-0.001072
-0.001244
0.346309
0.344444
0.339764
0.332198
0.321479
0.307250
0.289134
0.266803
0.240072
0.209019
0.174121
0.136361
0.097258
0.058746
0.022854
-0.008732
-0.034987
-0.055606
-0.070866
-0.081391
-0.087911
-0.091088
-0.091456
-0.089413
-0.085316
-0.079528
-0.072440
-0.064469
-0.056033
-0.047521
-0.039265
-0.031526
-0.024486
-0.018251
-0.012865
-0.008316
-0.004557
-0.001513
0.000901
0.002776
0.004201
0.005257
0.006015
0.006538
0.006876
0.007073
0.007162
0.007169
0.007116
0.007019
0.006891
0.006740
0.006574
0.006398
0.006216
0.006030
0.005844
0.005658
0.005472
0.005289
0.005108
0.004929
0.004752
0.004578
0.004406
0.004237
0.004069
0.003904
0.003740
0.003578
0.003417
0.003257
0.003099
0.002942
0.002785
0.002629
0.002474
0.002320
0.002166
0.002012
0.001858
0.001705
0.001552
0.001398
0.001244
0.001090
0.000935
0.000779
0.000623
0.000464
0.000303
0.000140
-0.000027
-0.000199
-0.000378
-0.000566
-0.000766
-0.000980
-0.001200
-0.001388
0.344950
0.342167
0.337087
0.329259
0.318336
0.303977
0.285861
0.263732
0.237483
0.207255
0.173542
0.137273
0.099812
0.062849
0.028144
-0.002793
-0.028958
-0.049938
-0.065832
-0.077082
-0.084285
-0.088052
-0.088882
-0.087208
-0.083438
-0.077964
-0.071190
-0.063528
-0.055387
-0.047141
-0.039114
-0.031561
-0.024661
-0.018526
-0.013199
-0.008678
-0.004921
-0.001861
0.000582
0.002494
0.003957
0.005051
0.005845
0.006399
0.006765
0.006984
0.007092
0.007115
0.007074
0.006987
0.006867
0.006722
0.006560
0.006388
0.006209
0.006025
0.005841
0.005655
0.005471
0.005288
0.005107
0.004929
0.004753
0.004579
0.004407
0.004237
0.004070
0.003904
0.003740
0.003578
0.003417
0.003258
0.003099
0.002942
0.002785
0.002629
0.002474
0.002320
0.002166
0.002012
0.001858
0.001705
0.001551
0.001398
0.001244
0.001089
0.000934
0.000778
0.000621
0.000461
0.000300
0.000135
-0.000034
-0.000209
-0.000392
-0.000588
-0.000804
-0.001056
-0.001378
-0.001576
