# vtk DataFile Version 3.0
Vector Field
ASCII
DATASET RECTILINEAR_GRID
DIMENSIONS 100 26 1
X_COORDINATES 100 double
0.050000 0.150000 0.250000 0.350000 0.450000 0.550000 0.650000 0.750000 0.850000 0.950000 1.050000 1.150000 1.250000 1.350000 1.450000 1.550000 1.650000 1.750000 1.850000 1.950000 2.050000 2.150000 2.250000 2.350000 2.450000 2.550000 2.650000 2.750000 2.850000 2.950000 3.050000 3.150000 3.250000 3.350000 3.450000 3.550000 3.650000 3.750000 3.850000 3.950000 4.050000 4.150000 4.250000 4.350000 4.450000 4.550000 4.650000 4.750000 4.850000 4.950000 5.050000 5.150000 5.250000 5.350000 5.450000 5.550000 5.650000 5.750000 5.850000 5.950000 6.050000 6.150000 6.250000 6.350000 6.450000 6.550000 6.650000 6.750000 6.850000 6.950000 7.050000 7.150000 7.250000 7.350000 7.450000 7.550000 7.650000 7.750000 7.850000 7.950000 8.050000 8.150000 8.250000 8.350000 8.450000 8.550000 8.650000 8.750000 8.850000 8.950000 9.050000 9.150000 9.250000 9.350000 9.450000 9.550000 9.650000 9.750000 9.850000 9.950000 
Y_COORDINATES 26 double
0.050000 0.150000 0.250000 0.350000 0.450000 0.550000 0.650000 0.750000 0.850000 0.950000 1.050000 1.150000 1.250000 1.350000 1.450000 1.550000 1.650000 1.750000 1.850000 1.950000 2.050000 2.150000 2.250000 2.350000 2.450000 2.550000 
Z_COORDINATES 1 double
0.0
POINT_DATA 2600
VECTORS Vektorfeld double
1.000765 -0.000765 0.0
1.004276 -0.002745 0.0
1.011897 -0.004877 0.0
1.023827 -0.007052 0.0
1.040068 -0.009189 0.0
1.060437 -0.011180 0.0
1.084502 -0.012885 0.0
1.111526 -0.014138 0.0
1.140452 -0.014788 0.0
1.169991 -0.014751 0.0
1.198813 -0.014071 0.0
1.225788 -0.012904 0.0
1.250156 -0.011464 0.0
1.271576 -0.009957 0.0
1.290080 -0.008548 0.0
1.305967 -0.007340 0.0
1.319674 -0.006367 0.0
1.331637 -0.005595 0.0
1.342153 -0.004921 0.0
1.351266 -0.004192 0.0
1.358689 -0.003232 0.0
1.363816 -0.001895 0.0
1.365826 -0.000115 0.0
1.363828 0.002113 0.0
1.357020 0.004694 0.0
1.344861 0.007465 0.0
1.327155 0.010240 0.0
1.304073 0.012842 0.0
1.276108 0.015123 0.0
1.244007 0.016978 0.0
1.208693 0.018336 0.0
1.171196 0.019161 0.0
1.132596 0.019438 0.0
1.093991 0.019166 0.0
1.056473 0.018352 0.0
1.021116 0.017005 0.0
0.988980 0.015132 0.0
0.961116 0.012733 0.0
0.938597 0.009786 0.0
0.922570 0.006241 0.0
0.914255 0.002074 0.0
0.914682 -0.002500 0.0
0.924344 -0.007162 0.0
0.943196 -0.011691 0.0
0.970713 -0.015825 0.0
1.005766 -0.019228 0.0
1.046516 -0.021521 0.0
1.090373 -0.022335 0.0
1.134091 -0.021384 0.0
1.174044 -0.018569 0.0
1.206702 -0.014089 0.0
1.229289 -0.008498 0.0
1.240387 -0.002599 0.0
1.239964 0.003022 0.0
1.228800 0.008142 0.0
1.208091 0.012568 0.0
1.179364 0.016159 0.0
1.144357 0.018848 0.0
1.104887 0.020622 0.0
1.062753 0.021511 0.0
1.019683 0.021558 0.0
0.977323 0.020802 0.0
0.937254 0.019267 0.0
0.901016 0.016971 0.0
0.870079 0.013965 0.0
0.845743 0.010371 0.0
0.828965 0.006407 0.0
0.820158 0.002400 0.0
0.818937 -0.001178 0.0
0.824101 -0.003986 0.0
0.834240 -0.006153 0.0
0.848286 -0.007893 0.0
0.865593 -0.009413 0.0
0.885883 -0.010877 0.0
0.909147 -0.012387 0.0
0.935496 -0.013962 0.0
0.964982 -0.015525 0.0
0.997404 -0.016897 0.0
1.032119 -0.017818 0.0
1.067914 -0.017977 0.0
1.102944 -0.017053 0.0
1.134794 -0.014796 0.0
1.160728 -0.011137 0.0
1.178189 -0.006324 0.0
1.185451 -0.000937 0.0
1.181896 0.004492 0.0
1.167666 0.009738 0.0
1.143400 0.014528 0.0
1.110350 0.018521 0.0
1.070509 0.021320 0.0
1.026674 0.022515 0.0
0.982365 0.021795 0.0
0.941447 0.019123 0.0
0.907455 0.014869 0.0
0.882819 0.009766 0.0
0.868350 0.004704 0.0
0.863078 0.000568 0.0
0.864353 -0.001842 0.0
0.868527 -0.002331 0.0
0.870035 0.000823 0.0
1.001314 -0.002845 0.0
1.006224 -0.009087 0.0
1.015653 -0.015585 0.0
1.029555 -0.022175 0.0
1.047910 -0.028662 0.0
1.070578 -0.034744 0.0
1.097179 -0.039989 0.0
1.126987 -0.043866 0.0
1.158871 -0.045870 0.0
1.191363 -0.045700 0.0
1.222912 -0.043493 0.0
1.252236 -0.039781 0.0
1.278537 -0.035256 0.0
1.301529 -0.030577 0.0
1.321352 -0.026254 0.0
1.338434 -0.022602 0.0
1.353347 -0.019725 0.0
1.366663 -0.017516 0.0
1.378805 -0.015658 0.0
1.389907 -0.013669 0.0
1.399713 -0.010984 0.0
1.407548 -0.007105 0.0
1.412397 -0.001764 0.0
1.413130 0.005028 0.0
1.408781 0.012936 0.0
1.398731 0.021433 0.0
1.382781 0.029929 0.0
1.361147 0.037870 0.0
1.334399 0.044809 0.0
1.303366 0.050427 0.0
1.269041 0.054525 0.0
1.232512 0.056999 0.0
1.194898 0.057814 0.0
1.157319 0.056974 0.0
1.120880 0.054503 0.0
1.086657 0.050434 0.0
1.055695 0.044800 0.0
1.028999 0.037625 0.0
1.007493 0.028919 0.0
0.991940 0.018688 0.0
0.982871 0.007011 0.0
0.980793 -0.005786 0.0
0.986471 -0.019215 0.0
1.000664 -0.032683 0.0
1.023631 -0.045317 0.0
1.054879 -0.056040 0.0
1.093125 -0.063706 0.0
1.136326 -0.067208 0.0
1.181714 -0.065617 0.0
1.225873 -0.058446 0.0
1.265007 -0.046005 0.0
1.295489 -0.029652 0.0
1.314561 -0.011615 0.0
1.321086 0.005935 0.0
1.315625 0.021855 0.0
1.299651 0.035538 0.0
1.274969 0.046598 0.0
1.243521 0.054863 0.0
1.207266 0.060332 0.0
1.168095 0.063107 0.0
1.127790 0.063337 0.0
1.088010 0.061164 0.0
1.050270 0.056714 0.0
1.015897 0.050135 0.0
0.985935 0.041701 0.0
0.961008 0.031898 0.0
0.941221 0.021445 0.0
0.926204 0.011187 0.0
0.915508 0.001952 0.0
0.908979 -0.005751 0.0
0.906463 -0.012011 0.0
0.907649 -0.017266 0.0
0.912309 -0.022008 0.0
0.920424 -0.026688 0.0
0.932208 -0.031624 0.0
0.948042 -0.036907 0.0
0.968301 -0.042325 0.0
0.993139 -0.047356 0.0
1.022305 -0.051241 0.0
1.055040 -0.053084 0.0
1.090050 -0.051985 0.0
1.125529 -0.047194 0.0
1.159181 -0.038326 0.0
1.188221 -0.025637 0.0
1.209542 -0.010208 0.0
1.220633 0.006226 0.0
1.220811 0.022056 0.0
1.210903 0.036385 0.0
1.192358 0.048259 0.0
1.167128 0.056654 0.0
1.137548 0.060595 0.0
1.106145 0.059426 0.0
1.075377 0.053177 0.0
1.047351 0.042835 0.0
1.023536 0.030250 0.0
1.004552 0.017673 0.0
0.990205 0.007217 0.0
0.979932 0.000506 0.0
0.972777 -0.001699 0.0
0.966895 0.004564 0.0
1.001200 -0.005358 0.0
1.005926 -0.016209 0.0
1.015311 -0.027276 0.0
1.029426 -0.038501 0.0
1.048391 -0.049657 0.0
1.072249 -0.060275 0.0
1.100784 -0.069594 0.0
1.133320 -0.076604 0.0
1.168564 -0.080260 0.0
1.204565 -0.079803 0.0
1.239148 -0.075522 0.0
1.270623 -0.068551 0.0
1.298102 -0.060266 0.0
1.321434 -0.051891 0.0
1.340996 -0.044326 0.0
1.357497 -0.038112 0.0
1.371795 -0.033427 0.0
1.384745 -0.030080 0.0
1.397019 -0.027510 0.0
1.408917 -0.024818 0.0
1.420188 -0.020912 0.0
1.429958 -0.014781 0.0
1.436875 -0.005855 0.0
1.439478 0.005782 0.0
1.436546 0.019462 0.0
1.427321 0.034181 0.0
1.411606 0.048846 0.0
1.389723 0.062469 0.0
1.362392 0.074288 0.0
1.330591 0.083783 0.0
1.295428 0.090656 0.0
1.258053 0.094773 0.0
1.219600 0.096108 0.0
1.181159 0.094700 0.0
1.143758 0.090616 0.0
1.108364 0.083937 0.0
1.075874 0.074748 0.0
1.047112 0.063135 0.0
1.022840 0.049186 0.0
1.003817 0.032996 0.0
0.990910 0.014679 0.0
0.985135 -0.005601 0.0
0.987449 -0.027392 0.0
0.998412 -0.049662 0.0
1.017986 -0.070878 0.0
1.045606 -0.089348 0.0
1.080391 -0.103429 0.0
1.121192 -0.111487 0.0
1.166368 -0.111902 0.0
1.213417 -0.103370 0.0
1.258746 -0.085544 0.0
1.297878 -0.059726 0.0
1.326368 -0.029103 0.0
1.341341 0.001925 0.0
1.342693 0.029973 0.0
1.332216 0.053869 0.0
1.312119 0.073046 0.0
1.284662 0.087320 0.0
1.251999 0.096792 0.0
1.216086 0.101730 0.0
1.178637 0.102468 0.0
1.141109 0.099341 0.0
1.104695 0.092690 0.0
1.070302 0.082924 0.0
1.038543 0.070633 0.0
1.009775 0.056660 0.0
0.984193 0.042052 0.0
0.961933 0.027857 0.0
0.943074 0.014836 0.0
0.927591 0.003377 0.0
0.915409 -0.006442 0.0
0.906401 -0.015012 0.0
0.900526 -0.023047 0.0
0.898072 -0.031309 0.0
0.899680 -0.040394 0.0
0.906187 -0.050478 0.0
0.918327 -0.061154 0.0
0.936442 -0.071479 0.0
0.960323 -0.080164 0.0
0.989221 -0.085794 0.0
1.021946 -0.087011 0.0
1.056974 -0.082676 0.0
1.092528 -0.072048 0.0
1.126595 -0.055022 0.0
1.156915 -0.032463 0.0
1.180891 -0.006585 0.0
1.196289 0.019292 0.0
1.202525 0.042821 0.0
1.200377 0.062515 0.0
1.191068 0.076937 0.0
1.176078 0.084882 0.0
1.156943 0.085677 0.0
1.135100 0.079536 0.0
1.111831 0.067771 0.0
1.088309 0.052650 0.0
1.065664 0.036902 0.0
1.044936 0.023064 0.0
1.026833 0.013035 0.0
1.011602 0.008159 0.0
0.999913 0.012278 0.0
1.001149 -0.007708 0.0
1.005746 -0.023183 0.0
1.015035 -0.038976 0.0
1.029291 -0.055171 0.0
1.048916 -0.071578 0.0
1.074310 -0.087604 0.0
1.105626 -0.102116 0.0
1.142398 -0.113391 0.0
1.183181 -0.119501 0.0
1.225063 -0.118444 0.0
1.264492 -0.110894 0.0
1.299041 -0.099203 0.0
1.327807 -0.085859 0.0
1.350996 -0.072818 0.0
1.369445 -0.061410 0.0
1.384322 -0.052404 0.0
1.396939 -0.046049 0.0
1.408606 -0.042074 0.0
1.420448 -0.039632 0.0
1.433135 -0.037281 0.0
1.446542 -0.033128 0.0
1.459517 -0.025308 0.0
1.469988 -0.012716 0.0
1.475619 0.004409 0.0
1.474574 0.024813 0.0
1.465855 0.046776 0.0
1.449312 0.068508 0.0
1.425518 0.088483 0.0
1.395527 0.105596 0.0
1.360637 0.119166 0.0
1.322213 0.128860 0.0
1.281578 0.134579 0.0
1.239960 0.136372 0.0
1.198476 0.134362 0.0
1.158133 0.128698 0.0
1.119842 0.119540 0.0
1.084437 0.107042 0.0
1.052688 0.091352 0.0
1.025344 0.072585 0.0
1.003176 0.050789 0.0
0.987002 0.025967 0.0
0.977587 -0.001699 0.0
0.975378 -0.031401 0.0
0.980315 -0.061553 0.0
0.991968 -0.090214 0.0
1.010021 -0.115684 0.0
1.034641 -0.136497 0.0
1.066326 -0.150904 0.0
1.105255 -0.156590 0.0
1.150561 -0.151037 0.0
1.199809 -0.132454 0.0
1.248790 -0.100929 0.0
1.291770 -0.059370 0.0
1.322633 -0.013643 0.0
1.337796 0.029028 0.0
1.337905 0.065182 0.0
1.325685 0.094050 0.0
1.303971 0.115488 0.0
1.275451 0.129809 0.0
1.242496 0.137582 0.0
1.207081 0.139480 0.0
1.170758 0.136180 0.0
1.134666 0.128357 0.0
1.099585 0.116732 0.0
1.066016 0.102153 0.0
1.034296 0.085628 0.0
1.004695 0.068267 0.0
0.977439 0.051158 0.0
0.952637 0.035196 0.0
0.930210 0.020927 0.0
0.909971 0.008428 0.0
0.891908 -0.002810 0.0
0.876442 -0.013908 0.0
0.864569 -0.026122 0.0
0.857680 -0.040300 0.0
0.857097 -0.056496 0.0
0.863632 -0.073812 0.0
0.877365 -0.090670 0.0
0.897723 -0.105213 0.0
0.923702 -0.115622 0.0
0.954075 -0.120280 0.0
0.987514 -0.117874 0.0
1.022632 -0.107521 0.0
1.057979 -0.088964 0.0
1.091993 -0.062855 0.0
1.122885 -0.031062 0.0
1.148323 0.002932 0.0
1.166436 0.034832 0.0
1.176896 0.062191 0.0
1.180210 0.083256 0.0
1.177090 0.096674 0.0
1.168337 0.101774 0.0
1.154783 0.098836 0.0
1.137330 0.089193 0.0
1.117040 0.075042 0.0
1.095167 0.059028 0.0
1.073075 0.043757 0.0
1.052077 0.031442 0.0
1.033351 0.023709 0.0
1.018756 0.023012 0.0
1.001078 -0.009934 0.0
1.005424 -0.029900 0.0
1.014342 -0.050466 0.0
1.028363 -0.071957 0.0
1.048308 -0.094361 0.0
1.075176 -0.117083 0.0
1.109862 -0.138639 0.0
1.152495 -0.156273 0.0
1.201890 -0.166796 0.0
1.253095 -0.164235 0.0
1.299350 -0.150788 0.0
1.337163 -0.131670 0.0
1.366159 -0.111154 0.0
1.387453 -0.092006 0.0
1.402677 -0.075897 0.0
1.413641 -0.063758 0.0
1.422228 -0.055899 0.0
1.430354 -0.052017 0.0
1.439854 -0.051031 0.0
1.452142 -0.050857 0.0
1.467619 -0.048436 0.0
1.485051 -0.040407 0.0
1.501397 -0.024435 0.0
1.512603 -0.000710 0.0
1.515433 0.028146 0.0
1.508420 0.059175 0.0
1.491519 0.089552 0.0
1.465712 0.117040 0.0
1.432557 0.140184 0.0
1.393809 0.158217 0.0
1.351178 0.170865 0.0
1.306222 0.178164 0.0
1.260314 0.180313 0.0
1.214644 0.177574 0.0
1.170255 0.170218 0.0
1.128067 0.158497 0.0
1.088918 0.142639 0.0
1.053578 0.122843 0.0
1.022748 0.099267 0.0
0.997001 0.072023 0.0
0.976629 0.041278 0.0
0.961471 0.007564 0.0
0.950930 -0.027914 0.0
0.944273 -0.063320 0.0
0.941211 -0.097039 0.0
0.942639 -0.128341 0.0
0.950782 -0.156604 0.0
0.968235 -0.179935 0.0
0.996644 -0.194896 0.0
1.035978 -0.197370 0.0
1.084468 -0.183859 0.0
1.138726 -0.152764 0.0
1.193737 -0.105527 0.0
1.242880 -0.047493 0.0
1.278729 0.011867 0.0
1.297651 0.063311 0.0
1.301119 0.104674 0.0
1.291980 0.135717 0.0
1.273147 0.156934 0.0
1.247327 0.169232 0.0
1.216867 0.173705 0.0
1.183665 0.171480 0.0
1.149154 0.163660 0.0
1.114341 0.151323 0.0
1.079904 0.135568 0.0
1.046295 0.117541 0.0
1.013810 0.098439 0.0
0.982583 0.079469 0.0
0.952560 0.061710 0.0
0.923585 0.045816 0.0
0.895703 0.031660 0.0
0.869540 0.018186 0.0
0.846418 0.003683 0.0
0.828100 -0.013524 0.0
0.816346 -0.034256 0.0
0.812364 -0.057974 0.0
0.816423 -0.082928 0.0
0.827967 -0.106832 0.0
0.845993 -0.127434 0.0
0.869371 -0.142758 0.0
0.897002 -0.151149 0.0
0.927850 -0.151292 0.0
0.960914 -0.142286 0.0
0.995186 -0.123818 0.0
1.029579 -0.096408 0.0
1.062849 -0.061669 0.0
1.093440 -0.022489 0.0
1.119132 0.016449 0.0
1.138354 0.050892 0.0
1.150897 0.078698 0.0
1.156887 0.098360 0.0
1.156607 0.109120 0.0
1.150489 0.111161 0.0
1.139173 0.105637 0.0
1.123560 0.094500 0.0
1.104832 0.080171 0.0
1.084379 0.065159 0.0
1.063719 0.051698 0.0
1.044439 0.041459 0.0
1.028897 0.035399 0.0
1.000939 -0.011951 0.0
1.004755 -0.036046 0.0
1.012723 -0.061207 0.0
1.025655 -0.088169 0.0
1.044897 -0.117337 0.0
1.072344 -0.148424 0.0
1.110230 -0.179870 0.0
1.160148 -0.207592 0.0
1.222912 -0.227637 0.0
1.288524 -0.220211 0.0
1.342394 -0.194937 0.0
1.380863 -0.163804 0.0
1.406117 -0.133270 0.0
1.421279 -0.106346 0.0
1.429093 -0.084595 0.0
1.431986 -0.068916 0.0
1.432292 -0.059635 0.0
1.432456 -0.056572 0.0
1.435170 -0.058689 0.0
1.443118 -0.063436 0.0
1.458039 -0.066255 0.0
1.479479 -0.061460 0.0
1.503953 -0.044202 0.0
1.525006 -0.013200 0.0
1.536110 0.026703 0.0
1.534254 0.069488 0.0
1.519647 0.110748 0.0
1.493952 0.147347 0.0
1.459433 0.177550 0.0
1.418383 0.200649 0.0
1.372866 0.216581 0.0
1.324647 0.225622 0.0
1.275219 0.228192 0.0
1.225850 0.224734 0.0
1.177638 0.215659 0.0
1.131562 0.201319 0.0
1.088516 0.182012 0.0
1.049311 0.158016 0.0
1.014577 0.129658 0.0
0.984508 0.097448 0.0
0.958481 0.062253 0.0
0.934833 0.025396 0.0
0.911356 -0.011728 0.0
0.887015 -0.048508 0.0
0.863464 -0.085238 0.0
0.845038 -0.123145 0.0
0.837092 -0.161996 0.0
0.843313 -0.198217 0.0
0.864483 -0.226194 0.0
0.899261 -0.240184 0.0
0.945304 -0.235579 0.0
0.999753 -0.209750 0.0
1.059087 -0.162885 0.0
1.118663 -0.098853 0.0
1.172018 -0.025977 0.0
1.211736 0.042514 0.0
1.234877 0.098862 0.0
1.243286 0.142257 0.0
1.239396 0.173117 0.0
1.225739 0.192525 0.0
1.204708 0.201903 0.0
1.178399 0.202792 0.0
1.148537 0.196722 0.0
1.116454 0.185156 0.0
1.083130 0.169497 0.0
1.049229 0.151123 0.0
1.015123 0.131448 0.0
0.980892 0.111916 0.0
0.946429 0.093750 0.0
0.911749 0.077431 0.0
0.877484 0.062192 0.0
0.845227 0.046074 0.0
0.817359 0.026784 0.0
0.796238 0.002815 0.0
0.783274 -0.025875 0.0
0.778712 -0.057811 0.0
0.781977 -0.090414 0.0
0.792046 -0.120959 0.0
0.807808 -0.147097 0.0
0.828263 -0.166928 0.0
0.852566 -0.178911 0.0
0.879998 -0.181808 0.0
0.909905 -0.174742 0.0
0.941630 -0.157358 0.0
0.974435 -0.130066 0.0
1.007427 -0.094274 0.0
1.039479 -0.052527 0.0
1.068956 -0.008683 0.0
1.093779 0.031979 0.0
1.112682 0.066166 0.0
1.125386 0.092199 0.0
1.131801 0.109147 0.0
1.132062 0.116990 0.0
1.126572 0.116614 0.0
1.116042 0.109666 0.0
1.101488 0.098288 0.0
1.084199 0.084784 0.0
1.065693 0.071239 0.0
1.047672 0.059218 0.0
1.032561 0.048293 0.0
1.000695 -0.013586 0.0
1.003541 -0.041073 0.0
1.009634 -0.070241 0.0
1.019994 -0.102427 0.0
1.036484 -0.138811 0.0
1.062103 -0.180016 0.0
1.101223 -0.225285 0.0
1.158590 -0.269462 0.0
1.242308 -0.312250 0.0
1.328322 -0.287223 0.0
1.384341 -0.237814 0.0
1.413736 -0.188791 0.0
1.426228 -0.146029 0.0
1.427961 -0.110482 0.0
1.422327 -0.082640 0.0
1.411715 -0.063152 0.0
1.398226 -0.052217 0.0
1.384133 -0.050061 0.0
1.372626 -0.056407 0.0
1.368053 -0.069094 0.0
1.374611 -0.082074 0.0
1.394255 -0.086725 0.0
1.425328 -0.074485 0.0
1.460955 -0.039598 0.0
1.488862 0.014090 0.0
1.500419 0.072400 0.0
1.495406 0.127455 0.0
1.476594 0.175147 0.0
1.447130 0.213733 0.0
1.409797 0.242849 0.0
1.366864 0.262831 0.0
1.320165 0.274290 0.0
1.271224 0.277894 0.0
1.221355 0.274270 0.0
1.171733 0.263957 0.0
1.123441 0.247390 0.0
1.077501 0.224928 0.0
1.034833 0.196974 0.0
0.996012 0.164256 0.0
0.960691 0.128240 0.0
0.926915 0.091264 0.0
0.891177 0.055770 0.0
0.850187 0.022365 0.0
0.804243 -0.012315 0.0
0.760472 -0.054108 0.0
0.729556 -0.104934 0.0
0.717651 -0.160355 0.0
0.724198 -0.212626 0.0
0.745665 -0.254423 0.0
0.778831 -0.279897 0.0
0.821537 -0.284616 0.0
0.872152 -0.265777 0.0
0.928867 -0.222908 0.0
0.989151 -0.158690 0.0
1.049226 -0.079569 0.0
1.102567 0.003048 0.0
1.142764 0.074990 0.0
1.168210 0.132275 0.0
1.180309 0.174891 0.0
1.180897 0.203819 0.0
1.171953 0.220584 0.0
1.155409 0.226964 0.0
1.133017 0.224804 0.0
1.106266 0.215906 0.0
1.076340 0.201998 0.0
1.044083 0.184781 0.0
1.009978 0.166002 0.0
0.974201 0.147368 0.0
0.936884 0.130078 0.0
0.898592 0.114074 0.0
0.860800 0.097605 0.0
0.825924 0.077793 0.0
0.796714 0.052144 0.0
0.775309 0.019980 0.0
0.762545 -0.017312 0.0
0.757969 -0.057237 0.0
0.760489 -0.096772 0.0
0.768932 -0.133112 0.0
0.782256 -0.164030 0.0
0.799614 -0.187808 0.0
0.820357 -0.203076 0.0
0.843999 -0.208716 0.0
0.870153 -0.203896 0.0
0.898448 -0.188224 0.0
0.928434 -0.161992 0.0
0.959500 -0.126408 0.0
0.990799 -0.083744 0.0
1.021181 -0.037324 0.0
1.048770 0.008207 0.0
1.071710 0.048095 0.0
1.089113 0.080164 0.0
1.100616 0.103265 0.0
1.106111 0.117117 0.0
1.105784 0.122304 0.0
1.100140 0.120151 0.0
1.090003 0.112494 0.0
1.076500 0.101368 0.0
1.061043 0.088618 0.0
1.045281 0.075622 0.0
1.031482 0.060800 0.0
1.000319 -0.014600 0.0
1.001641 -0.044227 0.0
1.004640 -0.076178 0.0
1.010318 -0.112529 0.0
1.020736 -0.155617 0.0
1.039783 -0.207875 0.0
1.074457 -0.271220 0.0
1.135353 -0.341789 0.0
1.249682 -0.437970 0.0
1.356587 -0.354422 0.0
1.391750 -0.261796 0.0
1.390681 -0.193135 0.0
1.376910 -0.140407 0.0
1.357294 -0.098221 0.0
1.333249 -0.065223 0.0
1.305556 -0.042264 0.0
1.274790 -0.028851 0.0
1.241281 -0.025823 0.0
1.206986 -0.034842 0.0
1.177694 -0.056795 0.0
1.161755 -0.084992 0.0
1.166148 -0.107844 0.0
1.194286 -0.112577 0.0
1.243136 -0.085984 0.0
1.299126 -0.023421 0.0
1.341802 0.055677 0.0
1.362536 0.128456 0.0
1.365650 0.189845 0.0
1.355330 0.238819 0.0
1.334621 0.275804 0.0
1.305736 0.301694 0.0
1.270421 0.317441 0.0
1.230194 0.323910 0.0
1.186461 0.321855 0.0
1.140560 0.311896 0.0
1.093776 0.294526 0.0
1.047365 0.270142 0.0
1.002451 0.239342 0.0
0.959355 0.203805 0.0
0.915998 0.167369 0.0
0.866992 0.134918 0.0
0.807310 0.107535 0.0
0.740174 0.078724 0.0
0.679248 0.038196 0.0
0.638485 -0.020085 0.0
0.622086 -0.091643 0.0
0.625200 -0.164853 0.0
0.640798 -0.230273 0.0
0.664503 -0.281950 0.0
0.694677 -0.315711 0.0
0.731184 -0.328016 0.0
0.774260 -0.316068 0.0
0.823708 -0.278781 0.0
0.878465 -0.217859 0.0
0.936390 -0.138399 0.0
0.993885 -0.048959 0.0
1.044273 0.036412 0.0
1.082459 0.107221 0.0
1.108038 0.162266 0.0
1.121795 0.202098 0.0
1.124978 0.228066 0.0
1.119047 0.241957 0.0
1.105500 0.245751 0.0
1.085736 0.241474 0.0
1.060951 0.231141 0.0
1.032051 0.216794 0.0
0.999627 0.200518 0.0
0.964087 0.184168 0.0
0.926033 0.168650 0.0
0.886750 0.153078 0.0
0.848457 0.134688 0.0
0.813955 0.110088 0.0
0.785786 0.077229 0.0
0.765459 0.036627 0.0
0.753251 -0.008986 0.0
0.748481 -0.056218 0.0
0.750044 -0.101875 0.0
0.756836 -0.143244 0.0
0.767886 -0.178272 0.0
0.782402 -0.205441 0.0
0.799803 -0.223588 0.0
0.819721 -0.231765 0.0
0.841953 -0.229234 0.0
0.866365 -0.215593 0.0
0.892770 -0.191014 0.0
0.920816 -0.156497 0.0
0.949902 -0.114040 0.0
0.979125 -0.066633 0.0
1.007182 -0.018131 0.0
1.032160 0.026515 0.0
1.052529 0.063971 0.0
1.067662 0.092822 0.0
1.077230 0.112496 0.0
1.081219 0.123263 0.0
1.079931 0.126123 0.0
1.073996 0.122595 0.0
1.064356 0.114410 0.0
1.052263 0.103127 0.0
1.039230 0.089908 0.0
1.027258 0.072285 0.0
0.999815 -0.014733 0.0
0.999071 -0.044671 0.0
0.997719 -0.077381 0.0
0.996326 -0.115611 0.0
0.996355 -0.162983 0.0
1.001312 -0.224512 0.0
1.019416 -0.307362 0.0
1.068666 -0.415793 0.0
1.212566 -0.622195 0.0
1.315455 -0.379991 0.0
1.276318 -0.232252 0.0
1.215225 -0.160518 0.0
1.165637 -0.109664 0.0
1.123476 -0.067186 0.0
1.083303 -0.032039 0.0
1.039777 -0.004228 0.0
0.989996 0.013660 0.0
0.934715 0.020457 0.0
0.875153 0.012735 0.0
0.814898 -0.014825 0.0
0.767734 -0.063860 0.0
0.754578 -0.120214 0.0
0.784870 -0.158637 0.0
0.851432 -0.155336 0.0
0.940082 -0.098708 0.0
1.029428 -0.001058 0.0
1.097626 0.096259 0.0
1.141204 0.175350 0.0
1.166821 0.238018 0.0
1.177868 0.286268 0.0
1.176342 0.321641 0.0
1.163847 0.345304 0.0
1.141943 0.358178 0.0
1.112220 0.361044 0.0
1.076252 0.354578 0.0
1.035510 0.339370 0.0
0.991117 0.316103 0.0
0.943033 0.286378 0.0
0.888713 0.254185 0.0
0.823507 0.225550 0.0
0.746194 0.203055 0.0
0.666060 0.179214 0.0
0.600692 0.139550 0.0
0.563389 0.075601 0.0
0.554269 -0.007607 0.0
0.563390 -0.096842 0.0
0.580755 -0.180133 0.0
0.601443 -0.251279 0.0
0.623926 -0.307130 0.0
0.648479 -0.345257 0.0
0.676433 -0.362930 0.0
0.709468 -0.357265 0.0
0.748809 -0.326372 0.0
0.794608 -0.270824 0.0
0.845771 -0.194521 0.0
0.900013 -0.104575 0.0
0.953045 -0.011392 0.0
0.998830 0.071053 0.0
1.033879 0.137807 0.0
1.057961 0.188719 0.0
1.071505 0.224719 0.0
1.075355 0.247385 0.0
1.070575 0.258651 0.0
1.058287 0.260628 0.0
1.039526 0.255533 0.0
1.015144 0.245684 0.0
0.985815 0.233383 0.0
0.952241 0.220417 0.0
0.915557 0.207138 0.0
0.877682 0.191747 0.0
0.841255 0.170739 0.0
0.809031 0.140762 0.0
0.783073 0.100681 0.0
0.764328 0.052248 0.0
0.752778 -0.000850 0.0
0.747820 -0.054627 0.0
0.748562 -0.105771 0.0
0.754039 -0.151617 0.0
0.763312 -0.190222 0.0
0.775556 -0.220250 0.0
0.790146 -0.240770 0.0
0.806726 -0.251080 0.0
0.825192 -0.250616 0.0
0.845600 -0.239030 0.0
0.868015 -0.216397 0.0
0.892353 -0.183499 0.0
0.918268 -0.142039 0.0
0.945093 -0.094680 0.0
0.971832 -0.044880 0.0
0.996950 0.003167 0.0
1.018745 0.045154 0.0
1.036142 0.079110 0.0
1.048625 0.104158 0.0
1.055988 0.120249 0.0
1.058348 0.128064 0.0
1.056140 0.128798 0.0
1.050122 0.123865 0.0
1.041362 0.114525 0.0
1.031193 0.101712 0.0
1.021311 0.082335 0.0
0.999239 -0.013787 0.0
0.996112 -0.041745 0.0
0.989613 -0.072456 0.0
0.979384 -0.108913 0.0
0.965133 -0.155459 0.0
0.947288 -0.219147 0.0
0.929266 -0.312810 0.0
0.925918 -0.456247 0.0
1.023080 -0.822802 0.0
1.030158 -0.187226 0.0
0.856006 -0.099327 0.0
0.724156 -0.090222 0.0
0.656168 -0.062383 0.0
0.604075 -0.020214 0.0
0.537343 0.027893 0.0
0.452466 0.064243 0.0
0.364188 0.083248 0.0
0.286364 0.083973 0.0
0.232139 0.063006 0.0
0.212744 0.014553 0.0
0.231323 -0.064652 0.0
0.281441 -0.156384 0.0
0.356323 -0.227642 0.0
0.450908 -0.247477 0.0
0.558414 -0.202722 0.0
0.673654 -0.101630 0.0
0.781412 0.020876 0.0
0.865580 0.122986 0.0
0.927829 0.202517 0.0
0.972952 0.265599 0.0
1.002213 0.314574 0.0
1.016537 0.350543 0.0
1.017131 0.374248 0.0
1.005453 0.386375 0.0
0.983014 0.387653 0.0
0.951064 0.378986 0.0
0.909908 0.362037 0.0
0.857995 0.340440 0.0
0.792605 0.319835 0.0
0.714628 0.303083 0.0
0.634447 0.283017 0.0
0.569637 0.244195 0.0
0.533091 0.176482 0.0
0.524661 0.084402 0.0
0.535126 -0.017754 0.0
0.554603 -0.115293 0.0
0.576703 -0.201147 0.0
0.598306 -0.272556 0.0
0.618252 -0.328283 0.0
0.636882 -0.367288 0.0
0.655870 -0.387840 0.0
0.677800 -0.387320 0.0
0.705264 -0.363122 0.0
0.739814 -0.314423 0.0
0.781399 -0.243670 0.0
0.828482 -0.156752 0.0
0.878346 -0.062111 0.0
0.925852 0.028480 0.0
0.966006 0.105177 0.0
0.996929 0.166345 0.0
1.018204 0.212274 0.0
1.030026 0.244158 0.0
1.032951 0.263732 0.0
1.027717 0.273069 0.0
1.015093 0.274477 0.0
0.995796 0.270418 0.0
0.970555 0.263220 0.0
0.940355 0.254353 0.0
0.906780 0.243461 0.0
0.872141 0.227940 0.0
0.839155 0.203960 0.0
0.810255 0.168666 0.0
0.787010 0.121980 0.0
0.770031 0.066672 0.0
0.759281 0.007024 0.0
0.754371 -0.052632 0.0
0.754662 -0.108799 0.0
0.759321 -0.158726 0.0
0.767416 -0.200481 0.0
0.778040 -0.232859 0.0
0.790465 -0.255177 0.0
0.804256 -0.267044 0.0
0.819320 -0.268181 0.0
0.835837 -0.258389 0.0
0.854096 -0.237712 0.0
0.874296 -0.206723 0.0
0.896373 -0.166807 0.0
0.919913 -0.120276 0.0
0.944139 -0.070250 0.0
0.967936 -0.020377 0.0
0.989725 0.025113 0.0
1.008123 0.063355 0.0
1.022408 0.093145 0.0
1.032194 0.114112 0.0
1.037420 0.126616 0.0
1.038343 0.131531 0.0
1.035538 0.129954 0.0
1.029886 0.122847 0.0
1.022519 0.110926 0.0
1.014821 0.090701 0.0
0.998698 -0.011725 0.0
0.993325 -0.035308 0.0
0.981917 -0.060986 0.0
0.963012 -0.091248 0.0
0.933906 -0.129767 0.0
0.889628 -0.182716 0.0
0.820363 -0.261955 0.0
0.708054 -0.391444 0.0
0.319134 -0.697972 0.0
-0.471683 0.239784 0.0
-0.471683 0.000000 0.0
-0.033761 -0.023710 0.0
-0.069310 -0.035408 0.0
-0.054306 -0.010099 0.0
-0.013675 0.043879 0.0
0.013143 0.106315 0.0
0.003619 0.138978 0.0
-0.024341 0.134028 0.0
-0.049957 0.092793 0.0
-0.060470 0.014674 0.0
-0.049002 -0.094820 0.0
-0.013377 -0.211958 0.0
0.046063 -0.306389 0.0
0.129678 -0.346930 0.0
0.233400 -0.314497 0.0
0.349430 -0.221126 0.0
0.474223 -0.092179 0.0
0.591657 0.034438 0.0
0.686009 0.134464 0.0
0.759810 0.214728 0.0
0.815707 0.280286 0.0
0.854129 0.332085 0.0
0.875767 0.370473 0.0
0.881652 0.395944 0.0
0.872821 0.409353 0.0
0.849781 0.412276 0.0
0.811907 0.407777 0.0
0.758000 0.400520 0.0
0.689835 0.393310 0.0
0.617045 0.380375 0.0
0.556151 0.346800 0.0
0.520758 0.280615 0.0
0.512844 0.184523 0.0
0.524965 0.072671 0.0
0.547665 -0.039189 0.0
0.573855 -0.139525 0.0
0.599404 -0.224565 0.0
0.621974 -0.293310 0.0
0.640344 -0.345845 0.0
0.654478 -0.382490 0.0
0.665765 -0.402914 0.0
0.677039 -0.405450 0.0
0.691936 -0.387353 0.0
0.713608 -0.346414 0.0
0.743486 -0.283142 0.0
0.780928 -0.201805 0.0
0.823704 -0.109697 0.0
0.868178 -0.015914 0.0
0.909368 0.068228 0.0
0.943657 0.138082 0.0
0.969826 0.193092 0.0
0.987429 0.233916 0.0
0.996501 0.261976 0.0
0.997358 0.279201 0.0
0.990455 0.287872 0.0
0.976344 0.290430 0.0
0.955784 0.289009 0.0
0.929982 0.284565 0.0
0.900804 0.276003 0.0
0.870683 0.260158 0.0
0.842139 0.233272 0.0
0.817164 0.193229 0.0
0.796924 0.140903 0.0
0.781900 0.079753 0.0
0.772188 0.014406 0.0
0.767653 -0.050568 0.0
0.767882 -0.111382 0.0
0.772151 -0.165071 0.0
0.779533 -0.209613 0.0
0.789053 -0.243871 0.0
0.799860 -0.267396 0.0
0.811394 -0.280151 0.0
0.823489 -0.282234 0.0
0.836363 -0.273727 0.0
0.850474 -0.254746 0.0
0.866296 -0.225710 0.0
0.884077 -0.187677 0.0
0.903695 -0.142563 0.0
0.924623 -0.093118 0.0
0.945985 -0.042667 0.0
0.966501 0.005099 0.0
0.984779 0.046693 0.0
0.999839 0.080462 0.0
1.011136 0.105711 0.0
1.018450 0.122478 0.0
1.021873 0.131324 0.0
1.021807 0.133032 0.0
1.018944 0.128284 0.0
1.014210 0.117591 0.0
1.008688 0.097255 0.0
0.998312 -0.008735 0.0
0.991356 -0.025969 0.0
0.976539 -0.044101 0.0
0.951762 -0.064452 0.0
0.912974 -0.088670 0.0
0.852319 -0.118878 0.0
0.753268 -0.157478 0.0
0.576823 -0.207167 0.0
0.231166 -0.245525 0.0
0.000000 0.239784 0.0
-0.000000 -0.000000 0.0
0.000000 0.000000 0.0
-0.016381 -0.016810 0.0
-0.046625 -0.013027 0.0
-0.072213 0.031764 0.0
-0.099485 0.118884 0.0
-0.135323 0.171771 0.0
-0.175917 0.169789 0.0
-0.210082 0.116813 0.0
-0.226442 0.017528 0.0
-0.219458 -0.116126 0.0
-0.192477 -0.253257 0.0
-0.151278 -0.365730 0.0
-0.093263 -0.429220 0.0
-0.008065 -0.421128 0.0
0.100794 -0.339384 0.0
0.222389 -0.220310 0.0
0.351985 -0.084460 0.0
0.471214 0.039783 0.0
0.566672 0.140149 0.0
0.641682 0.223958 0.0
0.698015 0.293659 0.0
0.735975 0.349301 0.0
0.755958 0.391248 0.0
0.758201 0.420637 0.0
0.742446 0.439786 0.0
0.708384 0.452203 0.0
0.658078 0.460307 0.0
0.599744 0.460021 0.0
0.548024 0.438174 0.0
0.516833 0.381086 0.0
0.510740 0.287816 0.0
0.524763 0.171213 0.0
0.550936 0.047687 0.0
0.582136 -0.068106 0.0
0.613323 -0.167984 0.0
0.641659 -0.249991 0.0
0.665258 -0.314053 0.0
0.682912 -0.361126 0.0
0.694216 -0.392648 0.0
0.699937 -0.409764 0.0
0.702417 -0.412354 0.0
0.705536 -0.398465 0.0
0.713711 -0.365149 0.0
0.730214 -0.310787 0.0
0.755909 -0.237297 0.0
0.789299 -0.150371 0.0
0.827472 -0.057887 0.0
0.866016 0.030469 0.0
0.900645 0.106922 0.0
0.929107 0.169620 0.0
0.950344 0.218548 0.0
0.963896 0.254720 0.0
0.969668 0.279829 0.0
0.967808 0.296007 0.0
0.958708 0.305505 0.0
0.943139 0.310063 0.0
0.922439 0.310012 0.0
0.898574 0.303600 0.0
0.873860 0.287395 0.0
0.850443 0.257996 0.0
0.829854 0.214069 0.0
0.812957 0.157199 0.0
0.800208 0.091229 0.0
0.791883 0.020968 0.0
0.788074 -0.048787 0.0
0.788539 -0.113857 0.0
0.792652 -0.170978 0.0
0.799525 -0.217963 0.0
0.808162 -0.253679 0.0
0.817631 -0.277864 0.0
0.827245 -0.290831 0.0
0.836717 -0.293120 0.0
0.846212 -0.285209 0.0
0.856272 -0.267435 0.0
0.867594 -0.240164 0.0
0.880747 -0.204157 0.0
0.895944 -0.160898 0.0
0.912944 -0.112712 0.0
0.931089 -0.062580 0.0
0.949386 -0.013801 0.0
0.966559 0.030142 0.0
0.981480 0.067032 0.0
0.993467 0.095856 0.0
1.002151 0.116336 0.0
1.007472 0.128722 0.0
1.009669 0.133502 0.0
1.009249 0.131097 0.0
1.006931 0.121831 0.0
1.003516 0.101952 0.0
0.998159 -0.005207 0.0
0.990606 -0.014987 0.0
0.974636 -0.024297 0.0
0.948291 -0.033135 0.0
0.908079 -0.040988 0.0
0.848227 -0.046052 0.0
0.760198 -0.043223 0.0
0.633045 -0.017825 0.0
0.475489 0.072615 0.0
0.196392 0.177281 0.0
0.000000 0.000000 0.0
-0.000000 -0.000000 0.0
0.000000 0.000000 0.0
-0.000329 0.000418 0.0
-0.027573 0.070403 0.0
-0.089629 0.169573 0.0
-0.155448 0.222739 0.0
-0.210010 0.213977 0.0
-0.247489 0.144269 0.0
-0.259843 0.018785 0.0
-0.246389 -0.137821 0.0
-0.219295 -0.285636 0.0
-0.189852 -0.403992 0.0
-0.158997 -0.479827 0.0
-0.116327 -0.498389 0.0
-0.043331 -0.443978 0.0
0.058344 -0.338986 0.0
0.174852 -0.211887 0.0
0.297159 -0.074326 0.0
0.406479 0.049480 0.0
0.493328 0.152769 0.0
0.560707 0.241136 0.0
0.609264 0.315306 0.0
0.638799 0.375724 0.0
0.648966 0.423753 0.0
0.639745 0.461646 0.0
0.613066 0.491085 0.0
0.575462 0.509335 0.0
0.538981 0.505808 0.0
0.516717 0.466372 0.0
0.515290 0.385506 0.0
0.532527 0.272253 0.0
0.562196 0.143085 0.0
0.598387 0.013450 0.0
0.635767 -0.102449 0.0
0.670412 -0.199474 0.0
0.700258 -0.276682 0.0
0.723904 -0.334607 0.0
0.740450 -0.374772 0.0
0.749483 -0.399340 0.0
0.751287 -0.410596 0.0
0.747337 -0.410053 0.0
0.740815 -0.397363 0.0
0.736406 -0.370018 0.0
0.738891 -0.324906 0.0
0.751180 -0.261162 0.0
0.773271 -0.181988 0.0
0.802789 -0.093963 0.0
0.835979 -0.005188 0.0
0.868501 0.075428 0.0
0.897093 0.144060 0.0
0.920104 0.199861 0.0
0.936613 0.243346 0.0
0.946157 0.275887 0.0
0.948620 0.299347 0.0
0.944262 0.315624 0.0
0.933849 0.325928 0.0
0.918755 0.329941 0.0
0.900869 0.325423 0.0
0.882218 0.308936 0.0
0.864489 0.277601 0.0