# vtk DataFile Version 3.0
Scalar Field
ASCII
DATASET RECTILINEAR_GRID
DIMENSIONS 100 26 1
X_COORDINATES 100 double
0.050000 0.150000 0.250000 0.350000 0.450000 0.550000 0.650000 0.750000 0.850000 0.950000 1.050000 1.150000 1.250000 1.350000 1.450000 1.550000 1.650000 1.750000 1.850000 1.950000 2.050000 2.150000 2.250000 2.350000 2.450000 2.550000 2.650000 2.750000 2.850000 2.950000 3.050000 3.150000 3.250000 3.350000 3.450000 3.550000 3.650000 3.750000 3.850000 3.950000 4.050000 4.150000 4.250000 4.350000 4.450000 4.550000 4.650000 4.750000 4.850000 4.950000 5.050000 5.150000 5.250000 5.350000 5.450000 5.550000 5.650000 5.750000 5.850000 5.950000 6.050000 6.150000 6.250000 6.350000 6.450000 6.550000 6.650000 6.750000 6.850000 6.950000 7.050000 7.150000 7.250000 7.350000 7.450000 7.550000 7.650000 7.750000 7.850000 7.950000 8.050000 8.150000 8.250000 8.350000 8.450000 8.550000 8.650000 8.750000 8.850000 8.950000 9.050000 9.150000 9.250000 9.350000 9.450000 9.550000 9.650000 9.750000 9.850000 9.950000 
Y_COORDINATES 26 double
0.050000 0.150000 0.250000 0.350000 0.450000 0.550000 0.650000 0.750000 0.850000 0.950000 1.050000 1.150000 1.250000 1.350000 1.450000 1.550000 1.650000 1.750000 1.850000 1.950000 2.050000 2.150000 2.250000 2.350000 2.450000 2.550000 
Z_COORDINATES 1 double
0.0
POINT_DATA 2600
SCALARS Skalarfeld double 1
LOOKUP_TABLE default
0.243228
0.227845
0.212353
0.193738
0.170905
0.143423
0.111318
0.075063
0.035649
-0.005404
-0.046173
-0.084643
-0.119058
-0.148197
-0.171082
-0.187313
-0.197182
-0.201286
-0.200427
-0.195513
-0.187475
-0.177202
-0.165495
-0.153044
-0.140410
-0.128024
-0.116176
-0.105023
-0.094611
-0.084934
-0.076004
-0.067916
-0.060875
-0.055172
-0.051131
-0.049019
-0.048952
-0.050800
-0.054121
-0.058144
-0.061810
-0.063866
-0.063095
-0.059092
-0.051244
-0.042027
-0.032914
-0.024635
-0.017507
-0.011616
-0.006911
-0.003261
-0.000500
0.001550
0.003061
0.004186
0.005051
0.005751
0.006356
0.006905
0.007417
0.007895
0.008330
0.008706
0.009007
0.009219
0.009330
0.009334
0.009229
0.009018
0.008707
0.008303
0.007818
0.007262
0.006644
0.005976
0.005267
0.004524
0.003755
0.002965
0.002159
0.001342
0.000516
-0.000315
-0.001151
-0.001990
-0.002831
-0.003674
-0.004518
-0.005365
-0.006215
-0.007070
-0.007930
-0.008799
-0.009679
-0.010574
-0.011489
-0.012430
-0.013404
-0.013946
0.234576
0.227996
0.215477
0.198005
0.175453
0.147649
0.114647
0.076927
0.035569
-0.007686
-0.050566
-0.090730
-0.126210
-0.155578
-0.178262
-0.194170
-0.203432
-0.206716
-0.204901
-0.198969
-0.189918
-0.178701
-0.166179
-0.153089
-0.140031
-0.127458
-0.115658
-0.104747
-0.094698
-0.085412
-0.076825
-0.068986
-0.062084
-0.056424
-0.052353
-0.050171
-0.050023
-0.051803
-0.055082
-0.059085
-0.062730
-0.064651
-0.063300
-0.057617
-0.049937
-0.041314
-0.032547
-0.024480
-0.017488
-0.011690
-0.007052
-0.003453
-0.000730
0.001294
0.002790
0.003909
0.004777
0.005488
0.006110
0.006680
0.007216
0.007719
0.008178
0.008577
0.008899
0.009129
0.009255
0.009272
0.009177
0.008974
0.008669
0.008270
0.007789
0.007236
0.006622
0.005956
0.005249
0.004508
0.003741
0.002952
0.002149
0.001333
0.000510
-0.000320
-0.001153
-0.001990
-0.002828
-0.003667
-0.004507
-0.005349
-0.006192
-0.007037
-0.007886
-0.008740
-0.009600
-0.010468
-0.011346
-0.012239
-0.013157
-0.013763
0.238073
0.233840
0.223174
0.206657
0.184239
0.155682
0.120893
0.080254
0.034943
-0.012870
-0.060089
-0.103665
-0.141319
-0.171709
-0.194339
-0.209372
-0.217153
-0.218492
-0.214436
-0.206126
-0.194724
-0.181346
-0.167009
-0.152593
-0.138808
-0.126171
-0.114961
-0.105167
-0.096520
-0.088642
-0.081236
-0.074214
-0.067712
-0.062040
-0.057582
-0.054681
-0.053530
-0.054065
-0.055908
-0.058340
-0.060332
-0.060678
-0.058361
-0.053143
-0.045868
-0.037784
-0.030005
-0.022758
-0.016387
-0.011059
-0.006765
-0.003419
-0.000878
0.001019
0.002431
0.003502
0.004349
0.005063
0.005703
0.006303
0.006876
0.007418
0.007916
0.008352
0.008706
0.008963
0.009112
0.009147
0.009067
0.008875
0.008579
0.008188
0.007714
0.007167
0.006557
0.005897
0.005195
0.004459
0.003696
0.002912
0.002113
0.001303
0.000484
-0.000340
-0.001169
-0.001999
-0.002831
-0.003663
-0.004495
-0.005326
-0.006157
-0.006987
-0.007816
-0.008645
-0.009471
-0.010294
-0.011109
-0.011908
-0.012669
-0.013307
0.249408
0.245927
0.236250
0.220357
0.197842
0.168080
0.130546
0.085276
0.033480
-0.022017
-0.076332
-0.125107
-0.165735
-0.197144
-0.219255
-0.232596
-0.237868
-0.236102
-0.228563
-0.216603
-0.201606
-0.184919
-0.167783
-0.151275
-0.136276
-0.123437
-0.113096
-0.105074
-0.098696
-0.093079
-0.087538
-0.081770
-0.075848
-0.070106
-0.064989
-0.060903
-0.058100
-0.056589
-0.056094
-0.056053
-0.055685
-0.054164
-0.050902
-0.045832
-0.039456
-0.032523
-0.025628
-0.019335
-0.013856
-0.009288
-0.005586
-0.002711
-0.000537
0.001083
0.002291
0.003220
0.003978
0.004646
0.005275
0.005889
0.006494
0.007078
0.007621
0.008100
0.008494
0.008785
0.008961
0.009017
0.008952
0.008771
0.008484
0.008099
0.007630
0.007087
0.006481
0.005825
0.005127
0.004395
0.003637
0.002859
0.002065
0.001260
0.000447
-0.000372
-0.001194
-0.002018
-0.002842
-0.003665
-0.004487
-0.005307
-0.006123
-0.006936
-0.007745
-0.008546
-0.009338
-0.010116
-0.010872
-0.011592
-0.012249
-0.012878
0.267155
0.264055
0.255110
0.239832
0.217274
0.186105
0.144913
0.092874
0.030923
-0.037357
-0.102750
-0.158650
-0.202555
-0.234344
-0.254817
-0.265139
-0.266438
-0.260082
-0.247534
-0.230391
-0.210320
-0.188964
-0.167851
-0.148316
-0.131461
-0.118173
-0.109070
-0.103770
-0.100881
-0.098565
-0.095535
-0.091265
-0.085846
-0.079759
-0.073613
-0.067945
-0.063106
-0.059204
-0.056094
-0.053409
-0.050641
-0.047287
-0.043023
-0.037834
-0.032009
-0.025983
-0.020169
-0.014910
-0.010385
-0.006632
-0.003675
-0.001405
0.000273
0.001499
0.002397
0.003097
0.003698
0.004270
0.004854
0.005464
0.006094
0.006721
0.007316
0.007848
0.008290
0.008621
0.008829
0.008909
0.008860
0.008691
0.008410
0.008029
0.007562
0.007020
0.006416
0.005761
0.005064
0.004335
0.003580
0.002805
0.002015
0.001215
0.000406
-0.000407
-0.001223
-0.002040
-0.002856
-0.003671
-0.004484
-0.005292
-0.006095
-0.006892
-0.007680
-0.008457
-0.009218
-0.009959
-0.010670
-0.011337
-0.011940
-0.012556
0.290599
0.287888
0.279888
0.265712
0.243750
0.211589
0.166198
0.104784
0.026972
-0.063601
-0.145832
-0.210078
-0.256088
-0.286366
-0.303181
-0.308459
-0.303989
-0.291238
-0.271807
-0.247581
-0.220594
-0.192881
-0.166338
-0.142614
-0.123045
-0.108903
-0.101818
-0.100883
-0.103400
-0.105948
-0.106185
-0.103478
-0.098174
-0.091160
-0.083402
-0.075674
-0.068475
-0.062026
-0.056304
-0.051106
-0.046135
-0.041101
-0.035830
-0.030324
-0.024746
-0.019346
-0.014369
-0.010008
-0.006367
-0.003466
-0.001278
0.000293
0.001378
0.002106
0.002625
0.003039
0.003436
0.003879
0.004399
0.004999
0.005656
0.006336
0.006994
0.007592
0.008093
0.008474
0.008721
0.008828
0.008797
0.008638
0.008362
0.007983
0.007514
0.006970
0.006365
0.005708
0.005011
0.004281
0.003527
0.002754
0.001967
0.001169
0.000365
-0.000443
-0.001254
-0.002065
-0.002875
-0.003682
-0.004485
-0.005283
-0.006074
-0.006856
-0.007627
-0.008383
-0.009120
-0.009832
-0.010511
-0.011146
-0.011722
-0.012333
0.319009
0.316874
0.310422
0.298439
0.278615
0.247098
0.198140
0.124614
0.021413
-0.111238
-0.217016
-0.286774
-0.330017
-0.354959
-0.365213
-0.363255
-0.351301
-0.330250
-0.301837
-0.268341
-0.232297
-0.196263
-0.162628
-0.133419
-0.110107
-0.094353
-0.089771
-0.095295
-0.106352
-0.116062
-0.120247
-0.118889
-0.112965
-0.104189
-0.094130
-0.083877
-0.074083
-0.065053
-0.056850
-0.049378
-0.042466
-0.035951
-0.029734
-0.023816
-0.018283
-0.013267
-0.008895
-0.005254
-0.002377
-0.000242
0.001218
0.002113
0.002580
0.002765
0.002818
0.002888
0.003066
0.003371
0.003828
0.004429
0.005133
0.005888
0.006635
0.007318
0.007896
0.008340
0.008633
0.008773
0.008762
0.008613
0.008340
0.007959
0.007486
0.006938
0.006327
0.005666
0.004965
0.004234
0.003479
0.002706
0.001920
0.001124
0.000323
-0.000482
-0.001288
-0.002094
-0.002898
-0.003698
-0.004494
-0.005282
-0.006063
-0.006832
-0.007588
-0.008328
-0.009047
-0.009739
-0.010397
-0.011013
-0.011577
-0.012192
0.351306
0.350039
0.346034
0.337947
0.322988
0.295856
0.246939
0.160338
0.014361
-0.204374
-0.333007
-0.391782
-0.420664
-0.435377
-0.437067
-0.427774
-0.407587
-0.376883
-0.337730
-0.293025
-0.245989
-0.199859
-0.157682
-0.122054
-0.094880
-0.076014
-0.072683
-0.084618
-0.105522
-0.126121
-0.135586
-0.135232
-0.127896
-0.116710
-0.104059
-0.091274
-0.079071
-0.067774
-0.057470
-0.048117
-0.039618
-0.031879
-0.024845
-0.018511
-0.012917
-0.008121
-0.004169
-0.001081
0.001168
0.002638
0.003429
0.003673
0.003530
0.003171
0.002765
0.002464
0.002399
0.002586
0.003009
0.003649
0.004446
0.005322
0.006197
0.007002
0.007684
0.008209
0.008561
0.008739
0.008751
0.008612
0.008340
0.007955
0.007475
0.006919
0.006300
0.005632
0.004926
0.004191
0.003433
0.002659
0.001873
0.001079
0.000279
-0.000523
-0.001326
-0.002127
-0.002926
-0.003721
-0.004509
-0.005290
-0.006062
-0.006822
-0.007567
-0.008295
-0.009000
-0.009679
-0.010325
-0.010932
-0.011493
-0.012118
0.385878
0.385786
0.385220
0.383069
0.376772
0.360615
0.321662
0.230301
0.012245
-0.400484
-0.505868
-0.506254
-0.504649
-0.508542
-0.506571
-0.494203
-0.467590
-0.427918
-0.378176
-0.322165
-0.263939
-0.207541
-0.156835
-0.115083
-0.084536
-0.066334
-0.060323
-0.073646
-0.098061
-0.123811
-0.142608
-0.144819
-0.136469
-0.123456
-0.109219
-0.094988
-0.081435
-0.068844
-0.057291
-0.046768
-0.037242
-0.028682
-0.021075
-0.014432
-0.008775
-0.004124
-0.000483
0.002174
0.003902
0.004794
0.004976
0.004604
0.003869
0.002973
0.002118
0.001478
0.001179
0.001289
0.001746
0.002508
0.003482
0.004558
0.005630
0.006608
0.007433
0.008066
0.008494
0.008720
0.008759
0.008630
0.008358
0.007966
0.007477
0.006910
0.006281
0.005604
0.004891
0.004150
0.003388
0.002612
0.001825
0.001031
0.000233
-0.000567
-0.001367
-0.002166
-0.002960
-0.003750
-0.004534
-0.005309
-0.006074
-0.006826
-0.007564
-0.008283
-0.008980
-0.009652
-0.010292
-0.010897
-0.011461
-0.012101
0.420547
0.421831
0.425394
0.430813
0.436859
0.439982
0.429624
0.371776
0.116523
-0.754535
-0.701154
-0.572769
-0.541638
-0.542285
-0.551998
-0.544105
-0.516405
-0.472872
-0.417498
-0.354971
-0.290189
-0.228056
-0.173479
-0.130046
-0.099476
-0.081603
-0.077601
-0.084810
-0.100316
-0.117893
-0.131429
-0.136810
-0.131946
-0.119112
-0.105702
-0.092008
-0.078858
-0.066498
-0.054980
-0.044332
-0.034595
-0.025821
-0.018063
-0.011375
-0.005794
-0.001340
0.001995
0.004252
0.005502
0.005853
0.005448
0.004475
0.003156
0.001738
0.000460
-0.000473
-0.000918
-0.000811
-0.000192
0.000837
0.002126
0.003520
0.004882
0.006105
0.007122
0.007897
0.008421
0.008707
0.008777
0.008660
0.008387
0.007987
0.007486
0.006906
0.006265
0.005577
0.004856
0.004108
0.003342
0.002563
0.001774
0.000980
0.000182
-0.000616
-0.001414
-0.002210
-0.003001
-0.003788
-0.004567
-0.005338
-0.006098
-0.006846
-0.007579
-0.008293
-0.008987
-0.009655
-0.010295
-0.010903
-0.011474
-0.012133
0.452775
0.455396
0.463019
0.476131
0.495531
0.522140
0.556111
0.592574
0.666794
-0.043870
-0.627817
-0.554481
-0.541042
-0.540565
-0.554041
-0.555852
-0.533509
-0.494885
-0.443791
-0.385557
-0.325696
-0.269241
-0.221830
-0.185597
-0.160050
-0.144556
-0.135302
-0.127599
-0.124420
-0.123661
-0.122654
-0.119227
-0.112368
-0.104175
-0.092951
-0.081284
-0.070088
-0.059459
-0.049314
-0.039693
-0.030702
-0.022480
-0.015163
-0.008867
-0.003672
0.000375
0.003266
0.005031
0.005737
0.005491
0.004453
0.002838
0.000915
-0.001018
-0.002668
-0.003792
-0.004237
-0.003942
-0.002934
-0.001428
0.000353
0.002201
0.003953
0.005492
0.006748
0.007695
0.008334
0.008689
0.008795
0.008692
0.008418
0.008009
0.007494
0.006901
0.006247
0.005548
0.004818
0.004063
0.003293
0.002510
0.001720
0.000925
0.000128
-0.000670
-0.001466
-0.002260
-0.003049
-0.003833
-0.004610
-0.005379
-0.006136
-0.006882
-0.007612
-0.008325
-0.009018
-0.009688
-0.010331
-0.010945
-0.011527
-0.012206
0.480109
0.483733
0.494387
0.513179
0.542254
0.585394
0.649252
0.745288
0.880711
0.918666
0.000000
-0.545233
-0.535986
-0.527255
-0.528073
-0.527894
-0.513674
-0.484473
-0.445519
-0.402615
-0.361575
-0.326918
-0.299525
-0.277385
-0.257728
-0.239231
-0.215560
-0.190013
-0.164175
-0.141605
-0.122257
-0.105847
-0.092064
-0.080899
-0.071485
-0.063559
-0.055159
-0.047341
-0.039604
-0.031995
-0.024654
-0.017780
-0.011582
-0.006238
-0.001884
0.001394
0.003551
0.004587
0.004546
0.003530
0.001712
-0.000652
-0.003231
-0.005654
-0.007564
-0.008689
-0.008880
-0.008007
-0.006313
-0.004110
-0.001685
0.000719
0.002926
0.004820
0.006340
0.007472
0.008233
0.008661
0.008805
0.008715
0.008440
0.008022
0.007495
0.006887
0.006221
0.005512
0.004773
0.004012
0.003237
0.002452
0.001660
0.000865
0.000068
-0.000729
-0.001524
-0.002317
-0.003105
-0.003888
-0.004663
-0.005430
-0.006187
-0.006932
-0.007663
-0.008377
-0.009073
-0.009746
-0.010396
-0.011019
-0.011614
-0.012316
0.500712
0.504807
0.516825
0.537926
0.570213
0.616887
0.681878
0.766820
0.864961
0.956621
0.876606
0.000000
-0.519410
-0.502834
-0.487130
-0.476363
-0.464388
-0.445452
-0.424209
-0.406295
-0.395446
-0.391513
-0.390368
-0.384680
-0.367797
-0.337133
-0.296571
-0.251206
-0.205011
-0.162577
-0.126069
-0.096439
-0.073829
-0.057746
-0.046957
-0.039894
-0.035377
-0.030639
-0.025801
-0.020843
-0.015839
-0.010990
-0.006550
-0.002747
0.000241
0.002283
0.003293
0.003230
0.002111
0.000033
-0.002796
-0.006054
-0.009316
-0.012122
-0.014060
-0.014852
-0.014240
-0.012431
-0.009825
-0.006799
-0.003674
-0.000697
0.001959
0.004191
0.005956
0.007257
0.008127
0.008620
0.008796
0.008718
0.008441
0.008015
0.007476
0.006857
0.006180
0.005463
0.004717
0.003952
0.003174
0.002387
0.001594
0.000799
0.000002
-0.000794
-0.001589
-0.002380
-0.003168
-0.003950
-0.004726
-0.005493
-0.006251
-0.006998
-0.007731
-0.008449
-0.009149
-0.009829
-0.010488
-0.011123
-0.011732
-0.012457
0.513722
0.517737
0.529434
0.549630
0.579609
0.620900
0.674820
0.740990
0.807570
0.832388
0.796590
0.684484
0.000000
-0.472836
-0.442838
-0.419424
-0.405671
-0.395099
-0.391587
-0.400158
-0.421505
-0.449247
-0.473516
-0.482633
-0.463694
-0.419016
-0.361114
-0.297567
-0.234472
-0.176659
-0.127014
-0.086901
-0.056573
-0.035427
-0.022133
-0.014839
-0.011487
-0.009912
-0.008347
-0.006306
-0.004024
-0.001645
0.000549
0.002303
0.003414
0.003723
0.003103
0.001480
-0.001143
-0.004642
-0.008734
-0.012983
-0.016843
-0.019776
-0.021377
-0.021242
-0.019348
-0.016409
-0.012838
-0.009019
-0.005263
-0.001802
0.001215
0.003708
0.005656
0.007078
0.008024
0.008560
0.008758
0.008687
0.008408
0.007975
0.007429
0.006802
0.006119
0.005396
0.004647
0.003879
0.003100
0.002312
0.001520
0.000725
-0.000070
-0.000866
-0.001659
-0.002451
-0.003238
-0.004021
-0.004797
-0.005566
-0.006327
-0.007077
-0.007814
-0.008538
-0.009245
-0.009935
-0.010604
-0.011252
-0.011876
-0.012626
0.519292
0.522795
0.532912
0.550085
0.574935
0.607831
0.647755
0.689832
0.721185
0.715334
0.655003
0.572377
0.410871
0.000000
-0.403265
-0.363692
-0.354157
-0.348283
-0.356919
-0.385494
-0.433182
-0.489867
-0.536282
-0.552486
-0.522607
-0.467296
-0.397231
-0.321557
-0.247449
-0.179990
-0.122174
-0.075343
-0.039665
-0.014489
0.001453
0.009919
0.013051
0.013150
0.012087
0.011107
0.010591
0.010363
0.010058
0.009408
0.008220
0.006326
0.003583
-0.000092
-0.004664
-0.009921
-0.015445
-0.020638
-0.024834
-0.027470
-0.028146
-0.026334
-0.023200
-0.019225
-0.014841
-0.010410
-0.006211
-0.002437
0.000794
0.003429
0.005466
0.006944
0.007921
0.008474
0.008678
0.008608
0.008328
0.007892
0.007344
0.006715
0.006030
0.005307
0.004559
0.003792
0.003014
0.002229
0.001438
0.000645
-0.000149
-0.000943
-0.001736
-0.002527
-0.003315
-0.004099
-0.004877
-0.005649
-0.006414
-0.007169
-0.007913
-0.008644
-0.009360
-0.010060
-0.010742
-0.011404
-0.012045
-0.012819
0.518376
0.521146
0.529066
0.542185
0.560358
0.582783
0.607030
0.627422
0.632930
0.605743
0.528388
0.392411
0.249365
-0.156463
-0.388529
-0.333006
-0.314730
-0.306913
-0.323409
-0.367404
-0.433409
-0.506316
-0.563222
-0.574066
-0.539022
-0.478451
-0.403303
-0.323195
-0.245435
-0.174907
-0.114339
-0.064828
-0.026395
0.001568
0.020065
0.030489
0.034655
0.034723
0.032742
0.029954
0.027047
0.024513
0.021752
0.018541
0.014762
0.010286
0.004993
-0.001151
-0.008007
-0.015198
-0.022108
-0.027969
-0.032041
-0.033832
-0.032407
-0.029331
-0.025192
-0.020479
-0.015592
-0.010842
-0.006455
-0.002583
0.000690
0.003335
0.005367
0.006832
0.007799
0.008342
0.008542
0.008470
0.008191
0.007758
0.007214
0.006590
0.005911
0.005194
0.004451
0.003689
0.002916
0.002135
0.001348
0.000558
-0.000234
-0.001026
-0.001818
-0.002609
-0.003398
-0.004184
-0.004965
-0.005741
-0.006511
-0.007272
-0.008024
-0.008765
-0.009492
-0.010204
-0.010900
-0.011577
-0.012235
-0.013032
0.512326
0.514243
0.519632
0.528243
0.539441
0.551798
0.562401
0.565875
0.553303
0.511428
0.423110
0.265540
-0.008848
-0.562292
-0.444051
-0.330412
-0.289498
-0.282069
-0.305629
-0.356740
-0.426860
-0.499388
-0.550632
-0.549570
-0.514214
-0.455138
-0.382917
-0.306506
-0.232551
-0.165380
-0.107348
-0.059333
-0.021237
0.007577
0.027960
0.040813
0.047270
0.049081
0.048296
0.046309
0.042769
0.038967
0.034190
0.028541
0.022124
0.014920
0.006898
-0.001846
-0.010983
-0.019903
-0.027777
-0.033734
-0.037090
-0.036480
-0.033786
-0.029845
-0.025167
-0.020170
-0.015180
-0.010444
-0.006136
-0.002371
0.000791
0.003336
0.005287
0.006693
0.007619
0.008141
0.008332
0.008261
0.007990
0.007569
0.007037
0.006427
0.005761
0.005056
0.004323
0.003571
0.002806
0.002031
0.001250
0.000464
-0.000324
-0.001115
-0.001906
-0.002696
-0.003486
-0.004274
-0.005059
-0.005840
-0.006616
-0.007386
-0.008147
-0.008899
-0.009639
-0.010366
-0.011076
-0.011770
-0.012444
-0.013265
0.502717
0.503783
0.506689
0.511022
0.515916
0.519748
0.519693
0.511172
0.487313
0.438545
0.352309
0.212524
-0.000117
-0.263690
-0.304873
-0.284000
-0.270693
-0.275614
-0.302514
-0.350530
-0.411794
-0.470124
-0.497079
-0.491462
-0.459004
-0.407321
-0.344679
-0.278308
-0.213688
-0.154468
-0.102704
-0.059245
-0.024109
0.003176
0.023329
0.037190
0.045788
0.050420
0.052231
0.052584
0.052595
0.049188
0.043490
0.036274
0.027884
0.018462
0.008173
-0.002649
-0.013401
-0.023221
-0.031141
-0.036383
-0.037010
-0.035343
-0.032180
-0.028082
-0.023480
-0.018702
-0.014003
-0.009574
-0.005558
-0.002047
0.000907
0.003293
0.005128
0.006457
0.007340
0.007842
0.008033
0.007974
0.007722
0.007323
0.006815
0.006227
0.005582
0.004895
0.004178
0.003439
0.002685
0.001919
0.001145
0.000365
-0.000419
-0.001207
-0.001996
-0.002787
-0.003578
-0.004369
-0.005159
-0.005946
-0.006729
-0.007508
-0.008281
-0.009046
-0.009801
-0.010543
-0.011271
-0.011982
-0.012674
-0.013515
0.491126
0.491424
0.492126
0.492771
0.492461
0.489658
0.481924
0.465649
0.435869
0.386276
0.309617
0.199156
0.054348
-0.101005
-0.180966
-0.213546
-0.232409
-0.254113
-0.285651
-0.327368
-0.372929
-0.409118
-0.423636
-0.417075
-0.390950
-0.350034
-0.300081
-0.246452
-0.193421
-0.143998
-0.100015
-0.062362
-0.031245
-0.006414
0.012664
0.026711
0.036601
0.043316
0.047793
0.051218
0.052185
0.050185
0.045476
0.038482
0.029644
0.019391
0.008200
-0.003282
-0.014183
-0.023498
-0.030299
-0.032632
-0.032767
-0.031189
-0.028429
-0.024905
-0.020940
-0.016787
-0.012655
-0.008711
-0.005089
-0.001886
0.000840
0.003064
0.004795
0.006065
0.006924
0.007427
0.007636
0.007606
0.007388
0.007025
0.006551
0.005995
0.005377
0.004714
0.004018
0.003296
0.002555
0.001801
0.001036
0.000263
-0.000517
-0.001301
-0.002089
-0.002880
-0.003673
-0.004467
-0.005261
-0.006055
-0.006848
-0.007638
-0.008423
-0.009203
-0.009975
-0.010736
-0.011483
-0.012213
-0.012923
-0.013784
0.478974
0.478622
0.477485
0.475143
0.470794
0.463133
0.450216
0.429373
0.397226
0.349942
0.283905
0.197245
0.093319
-0.013818
-0.092868
-0.145027
-0.182531
-0.215502
-0.249428
-0.285001
-0.318270
-0.341684
-0.351527
-0.346392
-0.327075
-0.296487
-0.258462
-0.216810
-0.174767
-0.134757
-0.098384
-0.066539
-0.039559
-0.017375
0.000360
0.014186
0.024765
0.032817
0.039201
0.043560
0.045571
0.044931
0.041656
0.035969
0.028228
0.018915
0.008672
-0.001670
-0.011125
-0.018721
-0.023167
-0.025602
-0.026324
-0.025674
-0.023976
-0.021505
-0.018497
-0.015164
-0.011695
-0.008267
-0.005028
-0.002097
0.000445
0.002557
0.004231
0.005485
0.006356
0.006892
0.007145
0.007165
0.006998
0.006684
0.006255
0.005738
0.005154
0.004520
0.003847
0.003145
0.002421
0.001679
0.000924
0.000158
-0.000616
-0.001397
-0.002183
-0.002974
-0.003769
-0.004566
-0.005366
-0.006167
-0.006970
-0.007772
-0.008572
-0.009369
-0.010160
-0.010942
-0.011712
-0.012464
-0.013193
-0.014073
0.467466
0.466575
0.463944
0.459259
0.451890
0.440816
0.424578
0.401292
0.368766
0.324802
0.267795
0.197769
0.118003
0.036530
-0.033657
-0.089396
-0.134041
-0.172144
-0.206741
-0.238359
-0.264982
-0.283328
-0.291452
-0.288363
-0.274657
-0.252235
-0.223695
-0.191755
-0.158840
-0.126869
-0.097189
-0.070614
-0.047519
-0.027935
-0.011654
0.001694
0.012566
0.021444
0.028692
0.033984
0.037164
0.038029
0.036516
0.032736
0.026979
0.019711
0.011560
0.003299
-0.004248
-0.010327
-0.014899
-0.018050
-0.019871
-0.020503
-0.020099
-0.018820
-0.016833
-0.014317
-0.011464
-0.008471
-0.005523
-0.002770
-0.000323
0.001754
0.003435
0.004725
0.005652
0.006255
0.006579
0.006670
0.006569
0.006315
0.005938
0.005467
0.004922
0.004319
0.003673
0.002992
0.002284
0.001556
0.000812
0.000054
-0.000714
-0.001491
-0.002276
-0.003067
-0.003863
-0.004664
-0.005470
-0.006280
-0.007093
-0.007908
-0.008725
-0.009541
-0.010355
-0.011162
-0.011959
-0.012738
-0.013490
-0.014387
0.457603
0.456237
0.452354
0.445818
0.436207
0.422778
0.404479
0.380026
0.348037
0.307306
0.257234
0.198436
0.133445
0.067032
0.005474
-0.048145
-0.093955
-0.133422
-0.167781
-0.197223
-0.220778
-0.237068
-0.244768
-0.243548
-0.233998
-0.217514
-0.195982
-0.171414
-0.145662
-0.120229
-0.096201
-0.074250
-0.054696
-0.037589
-0.022791
-0.010057
0.000901
0.010350
0.018346
0.024644
0.029111
0.031582
0.031962
0.030293
0.026783
0.021796
0.015817
0.009411
0.003101
-0.002684
-0.007631
-0.011623
-0.014593
-0.016512
-0.017388
-0.017266
-0.016238
-0.014446
-0.012084
-0.009385
-0.006584
-0.003881
-0.001420
0.000710
0.002467
0.003846
0.004868
0.005565
0.005981
0.006156
0.006131
0.005942
0.005622
0.005198
0.004692
0.004122
0.003501
0.002842
0.002152
0.001437
0.000703
-0.000046
-0.000809
-0.001582
-0.002365
-0.003156
-0.003954
-0.004760
-0.005572
-0.006390
-0.007214
-0.008043
-0.008878
-0.009716
-0.010556
-0.011394
-0.012224
-0.013038
-0.013820
-0.014731
0.450267
0.448379
0.443305
0.435202
0.423869
0.408789
0.389215
0.364272
0.333105
0.295074
0.250054
0.198768
0.143088
0.086031
0.031166
-0.019060
-0.063716
-0.102793
-0.136460
-0.164584
-0.186634
-0.201888
-0.209582
-0.209778
-0.203120
-0.190779
-0.174256
-0.155140
-0.134890
-0.114689
-0.095372
-0.077432
-0.061070
-0.046281
-0.032938
-0.020862
-0.009876
0.000153
0.008994
0.016414
0.022248
0.026303
0.028450
0.028679
0.027130
0.024075
0.019842
0.014763
0.009110
0.003485
-0.001842
-0.006643
-0.010712
-0.013867
-0.015967
-0.016935
-0.016772
-0.015573
-0.013531
-0.010928
-0.008095
-0.005291
-0.002699
-0.000431
0.001458
0.002962
0.004101
0.004906
0.005419
0.005682
0.005730
0.005604
0.005336
0.004955
0.004484
0.003942
0.003345
0.002705
0.002030
0.001327
0.000603
-0.000139
-0.000897
-0.001667
-0.002448
-0.003239
-0.004040
-0.004849
-0.005667
-0.006494
-0.007329
-0.008173
-0.009027
-0.009889
-0.010759
-0.011633
-0.012506
-0.013369
-0.014199
-0.015115
0.446438
0.443657
0.437144
0.427531
0.414779
0.398492
0.378091
0.352964
0.322568
0.286577
0.245075
0.198741
0.148985
0.097874
0.047767
0.000617
-0.042338
-0.080429
-0.113232
-0.140355
-0.161502
-0.176048
-0.183744
-0.184861
-0.180109
-0.170569
-0.157545
-0.142375
-0.126259
-0.110134
-0.094618
-0.080021
-0.066406
-0.053680
-0.041687
-0.030279
-0.019331
-0.008715
0.001052
0.009692
0.016925
0.022468
0.026129
0.027869
0.027819
0.026251
0.023305
0.018961
0.013840
0.008257
0.002518
-0.003061
-0.008157
-0.012449
-0.015660
-0.017594
-0.018166
-0.017411
-0.015495
-0.012757
-0.009710
-0.006678
-0.003873
-0.001419
0.000614
0.002241
0.003487
0.004386
0.004982
0.005318
0.005425
0.005346
0.005117
0.004767
0.004322
0.003802
0.003223
0.002596
0.001932
0.001238
0.000521
-0.000216
-0.000970
-0.001738
-0.002519
-0.003311
-0.004114
-0.004928
-0.005752
-0.006586
-0.007433
-0.008293
-0.009166
-0.010053
-0.010955
-0.011870
-0.012797
-0.013729
-0.014647
-0.015536
0.447798
0.442566
0.433887
0.422668
0.408692
0.391501
0.370529
0.345313
0.315484
0.280879
0.241663
0.198444
0.152336
0.104899
0.057913
0.013031
-0.028446
-0.065569
-0.097561
-0.123925
-0.144436
-0.158518
-0.166208
-0.167907
-0.164371
-0.156635
-0.145890
-0.133322
-0.119964
-0.106590
-0.093674
-0.081399
-0.069733
-0.058518
-0.047578
-0.036795
-0.026129
-0.015485
-0.004877
0.004916
0.013431
0.020218
0.025006
0.027738
0.028601
0.027929
0.025437
0.021680
0.016864
0.011274
0.005239
-0.000873
-0.006660
-0.011713
-0.015668
-0.018259
-0.019362
-0.018969
-0.017138
-0.014098
-0.010789
-0.007531
-0.004575
-0.002024
0.000114
0.001828
0.003142
0.004094
0.004728
0.005087
0.005225
0.005176
0.004972
0.004645
0.004219
0.003714
0.003148
0.002531
0.001873
0.001184
0.000470
-0.000265
-0.001017
-0.001785
-0.002567
-0.003361
-0.004167
-0.004985
-0.005815
-0.006659
-0.007517
-0.008391
-0.009282
-0.010193
-0.011125
-0.012081
-0.013064
-0.014077
-0.015132
-0.015923
0.458847
0.444779
0.432991
0.420382
0.405567
0.387745
0.366433
0.341180
0.311687
0.277848
0.239842
0.198214
0.153922
0.108290
0.062859
0.019149
-0.021536
-0.058204
-0.090194
-0.116773
-0.137081
-0.151040
-0.158793
-0.160793
-0.157800
-0.150820
-0.140981
-0.129400
-0.117042
-0.104625
-0.092582
-0.081073
-0.070050
-0.059356
-0.048823
-0.038351
-0.027973
-0.017880
-0.007550
0.002741
0.011916
0.019300
0.024552
0.027596
0.028542
0.027521
0.025226
0.021699
0.017112
0.011721
0.005841
-0.000167
-0.005909
-0.010976
-0.015000
-0.017706
-0.018955
-0.018750
-0.017231
-0.014710
-0.011299
-0.007871
-0.004796
-0.002181
-0.000022
0.001702
0.003025
0.003987
0.004631
0.005004
0.005150
0.005109
0.004914
0.004594
0.004174
0.003674
0.003108
0.002495
0.001842
0.001157
0.000446
-0.000286
-0.001037
-0.001805
-0.002590
-0.003388
-0.004197
-0.005017
-0.005850
-0.006699
-0.007562
-0.008444
-0.009345
-0.010269
-0.011220
-0.012200
-0.013215
-0.014269
-0.015368
-0.016053
