# vtk DataFile Version 3.0
Vector Field
ASCII
DATASET RECTILINEAR_GRID
DIMENSIONS 100 26 1
X_COORDINATES 100 double
0.050000 0.150000 0.250000 0.350000 0.450000 0.550000 0.650000 0.750000 0.850000 0.950000 1.050000 1.150000 1.250000 1.350000 1.450000 1.550000 1.650000 1.750000 1.850000 1.950000 2.050000 2.150000 2.250000 2.350000 2.450000 2.550000 2.650000 2.750000 2.850000 2.950000 3.050000 3.150000 3.250000 3.350000 3.450000 3.550000 3.650000 3.750000 3.850000 3.950000 4.050000 4.150000 4.250000 4.350000 4.450000 4.550000 4.650000 4.750000 4.850000 4.950000 5.050000 5.150000 5.250000 5.350000 5.450000 5.550000 5.650000 5.750000 5.850000 5.950000 6.050000 6.150000 6.250000 6.350000 6.450000 6.550000 6.650000 6.750000 6.850000 6.950000 7.050000 7.150000 7.250000 7.350000 7.450000 7.550000 7.650000 7.750000 7.850000 7.950000 8.050000 8.150000 8.250000 8.350000 8.450000 8.550000 8.650000 8.750000 8.850000 8.950000 9.050000 9.150000 9.250000 9.350000 9.450000 9.550000 9.650000 9.750000 9.850000 9.950000 
Y_COORDINATES 26 double
0.050000 0.150000 0.250000 0.350000 0.450000 0.550000 0.650000 0.750000 0.850000 0.950000 1.050000 1.150000 1.250000 1.350000 1.450000 1.550000 1.650000 1.750000 1.850000 1.950000 2.050000 2.150000 2.250000 2.350000 2.450000 2.550000 
Z_COORDINATES 1 double
0.0
POINT_DATA 2600
VECTORS Vektorfeld double
1.000735 -0.000735 0.0
1.004158 -0.002689 0.0
1.011685 -0.004838 0.0
1.023604 -0.007081 0.0
1.040025 -0.009340 0.0
1.060881 -0.011515 0.0
1.085861 -0.013465 0.0
1.114346 -0.015020 0.0
1.145383 -0.016017 0.0
1.177749 -0.016349 0.0
1.210122 -0.016024 0.0
1.241299 -0.015152 0.0
1.270341 -0.013889 0.0
1.296606 -0.012376 0.0
1.319684 -0.010702 0.0
1.339281 -0.008896 0.0
1.355113 -0.006936 0.0
1.366824 -0.004775 0.0
1.373973 -0.002374 0.0
1.376095 0.000252 0.0
1.372770 0.003072 0.0
1.363703 0.005995 0.0
1.348821 0.008887 0.0
1.328331 0.011603 0.0
1.302721 0.014006 0.0
1.272734 0.015981 0.0
1.239309 0.017444 0.0
1.203524 0.018341 0.0
1.166542 0.018642 0.0
1.129560 0.018340 0.0
1.093783 0.017437 0.0
1.060398 0.015948 0.0
1.030561 0.013889 0.0
1.005394 0.011278 0.0
0.986001 0.008115 0.0
0.973511 0.004375 0.0
0.969055 0.000081 0.0
0.973456 -0.004482 0.0
0.986968 -0.009030 0.0
1.009255 -0.013258 0.0
1.039288 -0.016775 0.0
1.075202 -0.019139 0.0
1.114280 -0.019940 0.0
1.153140 -0.018920 0.0
1.188139 -0.016078 0.0
1.215951 -0.011734 0.0
1.234187 -0.006503 0.0
1.241810 -0.001121 0.0
1.238938 0.003992 0.0
1.226326 0.008619 0.0
1.205127 0.012580 0.0
1.176780 0.015767 0.0
1.142870 0.018143 0.0
1.105009 0.019718 0.0
1.064761 0.020530 0.0
1.023610 0.020622 0.0
0.982957 0.020030 0.0
0.944157 0.018771 0.0
0.908541 0.016845 0.0
0.877432 0.014263 0.0
0.852094 0.011075 0.0
0.833613 0.007407 0.0
0.822714 0.003491 0.0
0.819512 -0.000289 0.0
0.823283 -0.003482 0.0
0.832859 -0.006094 0.0
0.847237 -0.008284 0.0
0.865744 -0.010223 0.0
0.888017 -0.012050 0.0
0.913916 -0.013849 0.0
0.943384 -0.015618 0.0
0.976254 -0.017252 0.0
1.012044 -0.018538 0.0
1.049757 -0.019175 0.0
1.087749 -0.018817 0.0
1.123697 -0.017131 0.0
1.154741 -0.013913 0.0
1.177893 -0.009238 0.0
1.190723 -0.003591 0.0
1.191994 0.002320 0.0
1.181562 0.008112 0.0
1.159910 0.013539 0.0
1.128080 0.018291 0.0
1.087758 0.022031 0.0
1.041315 0.024413 0.0
0.991785 0.025117 0.0
0.942732 0.023936 0.0
0.897879 0.020917 0.0
0.860504 0.016458 0.0
0.832784 0.011262 0.0
0.815390 0.006132 0.0
0.807517 0.001740 0.0
0.807175 -0.001397 0.0
0.811729 -0.003157 0.0
0.818772 -0.003885 0.0
0.826584 -0.003927 0.0
0.834030 -0.003519 0.0
0.840322 -0.002773 0.0
0.844790 -0.001695 0.0
0.845446 0.001039 0.0
1.001281 -0.002750 0.0
1.006095 -0.008911 0.0
1.015410 -0.015458 0.0
1.029275 -0.022245 0.0
1.047774 -0.029097 0.0
1.070884 -0.035725 0.0
1.098349 -0.041702 0.0
1.129571 -0.046490 0.0
1.163536 -0.049550 0.0
1.198866 -0.050511 0.0
1.234036 -0.049405 0.0
1.267711 -0.046623 0.0
1.298937 -0.042688 0.0
1.327155 -0.038060 0.0
1.352078 -0.033018 0.0
1.373544 -0.027642 0.0
1.391365 -0.021843 0.0
1.405234 -0.015447 0.0
1.414687 -0.008304 0.0
1.419137 -0.000390 0.0
1.418006 0.008171 0.0
1.410898 0.017071 0.0
1.397699 0.025892 0.0
1.378614 0.034173 0.0
1.354172 0.041488 0.0
1.325173 0.047486 0.0
1.292621 0.051916 0.0
1.257655 0.054620 0.0
1.221482 0.055519 0.0
1.185337 0.054591 0.0
1.150445 0.051855 0.0
1.118006 0.047354 0.0
1.089174 0.041151 0.0
1.065042 0.033314 0.0
1.046604 0.023909 0.0
1.034670 0.013005 0.0
1.029816 0.000761 0.0
1.032645 -0.012392 0.0
1.043881 -0.025868 0.0
1.063940 -0.038765 0.0
1.092470 -0.049830 0.0
1.128111 -0.057639 0.0
1.168476 -0.060883 0.0
1.210308 -0.058669 0.0
1.249823 -0.050842 0.0
1.283256 -0.038215 0.0
1.307523 -0.022526 0.0
1.320745 -0.005943 0.0
1.322520 0.009911 0.0
1.313645 0.024188 0.0
1.295508 0.036347 0.0
1.269762 0.046093 0.0
1.238153 0.053336 0.0
1.202410 0.058129 0.0
1.164179 0.060597 0.0
1.125000 0.060885 0.0
1.086302 0.059117 0.0
1.049409 0.055379 0.0
1.015512 0.049750 0.0
0.985612 0.042368 0.0
0.960400 0.033519 0.0
0.940147 0.023697 0.0
0.924676 0.013571 0.0
0.913623 0.003888 0.0
0.906901 -0.004708 0.0
0.904560 -0.012103 0.0
0.906482 -0.018575 0.0
0.912540 -0.024496 0.0
0.922713 -0.030224 0.0
0.937153 -0.036015 0.0
0.956130 -0.041898 0.0
0.979875 -0.047587 0.0
1.008352 -0.052469 0.0
1.041068 -0.055674 0.0
1.076961 -0.056203 0.0
1.114368 -0.053100 0.0
1.151046 -0.045667 0.0
1.184177 -0.033769 0.0
1.210433 -0.018146 0.0
1.226512 -0.000476 0.0
1.230667 0.017184 0.0
1.223128 0.033658 0.0
1.205106 0.048024 0.0
1.178378 0.059346 0.0
1.145196 0.066723 0.0
1.108141 0.069391 0.0
1.069912 0.066942 0.0
1.033059 0.059617 0.0
0.999689 0.048503 0.0
0.971218 0.035409 0.0
0.948214 0.022384 0.0
0.930434 0.011141 0.0
0.917232 0.002747 0.0
0.907947 -0.002571 0.0
0.901697 -0.005264 0.0
0.897320 -0.005984 0.0
0.893749 -0.005336 0.0
0.890200 -0.003699 0.0
0.886109 -0.001147 0.0
0.881267 0.004678 0.0
1.001162 -0.005193 0.0
1.005774 -0.015894 0.0
1.015011 -0.027027 0.0
1.029038 -0.038568 0.0
1.048085 -0.050320 0.0
1.072313 -0.061839 0.0
1.101642 -0.072382 0.0
1.135544 -0.080931 0.0
1.172875 -0.086405 0.0
1.211815 -0.087925 0.0
1.250251 -0.085598 0.0
1.286469 -0.080323 0.0
1.319459 -0.073204 0.0
1.348829 -0.065131 0.0
1.374563 -0.056604 0.0
1.396755 -0.047715 0.0
1.415396 -0.038233 0.0
1.430222 -0.027752 0.0
1.440675 -0.015905 0.0
1.446015 -0.002580 0.0
1.445530 0.011977 0.0
1.438696 0.027206 0.0
1.425320 0.042333 0.0
1.405615 0.056522 0.0
1.380184 0.069012 0.0
1.349940 0.079205 0.0
1.315996 0.086692 0.0
1.279571 0.091235 0.0
1.241917 0.092731 0.0
1.204269 0.091172 0.0
1.167820 0.086614 0.0
1.133701 0.079153 0.0
1.102971 0.068916 0.0
1.076604 0.056049 0.0
1.055509 0.040708 0.0
1.040588 0.023060 0.0
1.032856 0.003291 0.0
1.033425 -0.018318 0.0
1.043231 -0.040985 0.0
1.062660 -0.063137 0.0
1.091274 -0.082601 0.0
1.127789 -0.097024 0.0
1.170169 -0.104243 0.0
1.215615 -0.102587 0.0
1.260482 -0.091306 0.0
1.300426 -0.071128 0.0
1.331124 -0.044578 0.0
1.349546 -0.015534 0.0
1.355015 0.012258 0.0
1.348767 0.036965 0.0
1.332709 0.057765 0.0
1.308852 0.074277 0.0
1.279153 0.086459 0.0
1.245414 0.094489 0.0
1.209233 0.098650 0.0
1.172001 0.099244 0.0
1.134914 0.096543 0.0
1.098975 0.090785 0.0
1.064986 0.082229 0.0
1.033529 0.071246 0.0
1.004977 0.058405 0.0
0.979559 0.044483 0.0
0.957462 0.030353 0.0
0.938861 0.016760 0.0
0.923849 0.004154 0.0
0.912444 -0.007218 0.0
0.904589 -0.017527 0.0
0.900259 -0.027273 0.0
0.899719 -0.037080 0.0
0.903580 -0.047459 0.0
0.912662 -0.058512 0.0
0.927675 -0.069731 0.0
0.948902 -0.080029 0.0
0.976021 -0.087949 0.0
1.008106 -0.091906 0.0
1.043725 -0.090423 0.0
1.081044 -0.082339 0.0
1.117888 -0.067072 0.0
1.151752 -0.044961 0.0
1.179742 -0.017729 0.0
1.198804 0.011220 0.0
1.207381 0.038585 0.0
1.205840 0.062661 0.0
1.195298 0.081979 0.0
1.177312 0.095258 0.0
1.153668 0.101556 0.0
1.126168 0.100507 0.0
1.096465 0.092609 0.0
1.065989 0.079356 0.0
1.035976 0.063041 0.0
1.007512 0.046220 0.0
0.981504 0.031092 0.0
0.958496 0.019007 0.0
0.938496 0.010455 0.0
0.921114 0.005342 0.0
0.905827 0.003075 0.0
0.892156 0.002849 0.0
0.879833 0.003988 0.0
0.868886 0.006203 0.0
0.859997 0.011060 0.0
1.001104 -0.007460 0.0
1.005561 -0.022696 0.0
1.014653 -0.038554 0.0
1.028749 -0.055163 0.0
1.048359 -0.072381 0.0
1.074005 -0.089652 0.0
1.105987 -0.105880 0.0
1.144006 -0.119354 0.0
1.186830 -0.128138 0.0
1.231743 -0.130045 0.0
1.275293 -0.125465 0.0
1.315057 -0.116438 0.0
1.350072 -0.105093 0.0
1.380399 -0.092940 0.0
1.406590 -0.080719 0.0
1.429259 -0.068461 0.0
1.448765 -0.055634 0.0
1.464974 -0.041385 0.0
1.477152 -0.024902 0.0
1.484122 -0.005894 0.0
1.484691 0.015208 0.0
1.477998 0.037502 0.0
1.463691 0.059720 0.0
1.442024 0.080508 0.0
1.413791 0.098690 0.0
1.380161 0.113401 0.0
1.342501 0.124100 0.0
1.302237 0.130516 0.0
1.260765 0.132576 0.0
1.219408 0.130332 0.0
1.179395 0.123915 0.0
1.141866 0.113499 0.0
1.107874 0.099292 0.0
1.078394 0.081519 0.0
1.054340 0.060387 0.0
1.036623 0.036019 0.0
1.026218 0.008469 0.0
1.024081 -0.021928 0.0
1.030844 -0.053944 0.0
1.046524 -0.085287 0.0
1.070576 -0.113118 0.0
1.102250 -0.134696 0.0
1.140787 -0.147488 0.0
1.185095 -0.149096 0.0
1.233049 -0.137619 0.0
1.280897 -0.112606 0.0
1.323258 -0.076159 0.0
1.354242 -0.033359 0.0
1.369907 0.008949 0.0
1.370343 0.046085 0.0
1.358204 0.076843 0.0
1.336391 0.100869 0.0
1.307621 0.118335 0.0
1.274246 0.129726 0.0
1.238189 0.135651 0.0
1.200951 0.136713 0.0
1.163661 0.133451 0.0
1.127134 0.126342 0.0
1.091931 0.115863 0.0
1.058428 0.102571 0.0
1.026901 0.087159 0.0
0.997599 0.070448 0.0
0.970761 0.053322 0.0
0.946534 0.036618 0.0
0.924866 0.020975 0.0
0.905548 0.006683 0.0
0.888487 -0.006512 0.0
0.874058 -0.019529 0.0
0.863281 -0.033507 0.0
0.857644 -0.049257 0.0
0.858618 -0.066771 0.0
0.867129 -0.084997 0.0
0.883271 -0.102132 0.0
0.906386 -0.116079 0.0
0.935319 -0.124794 0.0
0.968649 -0.126485 0.0
1.004817 -0.119764 0.0
1.042159 -0.103834 0.0
1.078872 -0.078778 0.0
1.112909 -0.045939 0.0
1.141683 -0.008406 0.0
1.162505 0.028812 0.0
1.174217 0.062263 0.0
1.177192 0.089944 0.0
1.172230 0.110241 0.0
1.160368 0.122078 0.0
1.142720 0.125132 0.0
1.120389 0.120017 0.0
1.094489 0.108324 0.0
1.066200 0.092376 0.0
1.036772 0.074777 0.0
1.007404 0.057910 0.0
0.979047 0.043554 0.0
0.952271 0.032683 0.0
0.927322 0.025444 0.0
0.904309 0.021272 0.0
0.883418 0.019214 0.0
0.865010 0.018353 0.0
0.849602 0.018192 0.0
0.838092 0.019470 0.0
1.001025 -0.009589 0.0
1.005201 -0.029200 0.0
1.013862 -0.049803 0.0
1.027631 -0.071780 0.0
1.047432 -0.095175 0.0
1.074383 -0.119455 0.0
1.109522 -0.143198 0.0
1.153160 -0.163693 0.0
1.204417 -0.177880 0.0
1.258616 -0.179414 0.0
1.309075 -0.170104 0.0
1.352325 -0.154813 0.0
1.388043 -0.137451 0.0
1.417424 -0.120290 0.0
1.442111 -0.104247 0.0
1.463650 -0.089141 0.0
1.483108 -0.073918 0.0
1.500726 -0.056929 0.0
1.515628 -0.036439 0.0
1.525828 -0.011527 0.0
1.529041 0.017060 0.0
1.523629 0.047756 0.0
1.508914 0.078487 0.0
1.485203 0.107118 0.0
1.453596 0.131919 0.0
1.415660 0.151737 0.0
1.373141 0.165943 0.0
1.327767 0.174311 0.0
1.281150 0.176869 0.0
1.234755 0.173791 0.0
1.189908 0.165317 0.0
1.147813 0.151721 0.0
1.109575 0.133299 0.0
1.076197 0.110371 0.0
1.048527 0.083259 0.0
1.027184 0.052206 0.0
1.012491 0.017380 0.0
1.004509 -0.020720 0.0
1.003060 -0.060465 0.0
1.007735 -0.099121 0.0
1.018336 -0.133938 0.0
1.035561 -0.162775 0.0
1.060947 -0.183332 0.0
1.095836 -0.192448 0.0
1.140157 -0.186542 0.0
1.191634 -0.163009 0.0
1.245461 -0.121944 0.0
1.294442 -0.067539 0.0
1.330331 -0.008424 0.0
1.348390 0.044963 0.0
1.349681 0.088813 0.0
1.337641 0.122751 0.0
1.315632 0.147232 0.0
1.286660 0.163177 0.0
1.253237 0.171681 0.0
1.217336 0.173822 0.0
1.180413 0.170555 0.0
1.143471 0.162707 0.0
1.107158 0.151015 0.0
1.071880 0.136201 0.0
1.037909 0.119028 0.0
1.005435 0.100355 0.0
0.974530 0.081158 0.0
0.945070 0.062469 0.0
0.916766 0.045096 0.0
0.889460 0.029188 0.0
0.863580 0.013924 0.0
0.840401 -0.002357 0.0
0.821929 -0.021431 0.0
0.810360 -0.044127 0.0
0.807217 -0.069731 0.0
0.812836 -0.096167 0.0
0.826542 -0.120810 0.0
0.847142 -0.141116 0.0
0.873323 -0.154871 0.0
0.903825 -0.160241 0.0
0.937457 -0.155808 0.0
0.973041 -0.140714 0.0
1.009337 -0.114907 0.0
1.044947 -0.079457 0.0
1.078165 -0.036880 0.0
1.106446 0.008184 0.0
1.127515 0.050110 0.0
1.140656 0.085981 0.0
1.145985 0.113838 0.0
1.143901 0.132427 0.0
1.134980 0.141353 0.0
1.119927 0.141180 0.0
1.099594 0.133394 0.0
1.075007 0.120182 0.0
1.047330 0.104076 0.0
1.017757 0.087552 0.0
0.987379 0.072647 0.0
0.957118 0.060627 0.0
0.927759 0.051808 0.0
0.900057 0.045622 0.0
0.874813 0.041001 0.0
0.852859 0.036927 0.0
0.834964 0.032920 0.0
0.821958 0.029258 0.0
1.000879 -0.011493 0.0
1.004494 -0.035087 0.0
1.012142 -0.060225 0.0
1.024721 -0.087705 0.0
1.043665 -0.117996 0.0
1.070968 -0.150887 0.0
1.108981 -0.184917 0.0
1.159454 -0.216085 0.0
1.223621 -0.240913 0.0
1.291740 -0.238699 0.0
1.349145 -0.218682 0.0
1.392261 -0.192601 0.0
1.423543 -0.166664 0.0
1.446585 -0.143500 0.0
1.464725 -0.123864 0.0
1.480814 -0.107152 0.0
1.497037 -0.091588 0.0
1.514545 -0.074386 0.0
1.532819 -0.052157 0.0
1.548966 -0.022155 0.0
1.558364 0.015077 0.0
1.557393 0.056122 0.0
1.544729 0.097500 0.0
1.520738 0.135807 0.0
1.487000 0.168575 0.0
1.445641 0.194375 0.0
1.398874 0.212590 0.0
1.348770 0.223143 0.0
1.297168 0.226256 0.0
1.245686 0.222281 0.0
1.195753 0.211607 0.0
1.148669 0.194611 0.0
1.105635 0.171681 0.0
1.067718 0.143285 0.0
1.035665 0.110068 0.0
1.009516 0.072889 0.0
0.988222 0.032684 0.0
0.969864 -0.009684 0.0
0.952963 -0.053150 0.0
0.937506 -0.095655 0.0
0.925435 -0.135934 0.0
0.920832 -0.173401 0.0
0.928335 -0.205595 0.0
0.950805 -0.227544 0.0
0.988384 -0.233346 0.0
1.038884 -0.218182 0.0
1.098293 -0.180006 0.0
1.160779 -0.120945 0.0
1.218350 -0.048478 0.0
1.261404 0.023905 0.0
1.285449 0.084535 0.0
1.292636 0.131882 0.0
1.286233 0.166513 0.0
1.269401 0.189699 0.0
1.244981 0.203002 0.0
1.215377 0.208006 0.0
1.182507 0.206164 0.0
1.147811 0.198736 0.0
1.112308 0.186803 0.0
1.076678 0.171320 0.0
1.041344 0.153214 0.0
1.006476 0.133510 0.0
0.971956 0.113428 0.0
0.937407 0.094210 0.0
0.902511 0.076555 0.0
0.867630 0.059915 0.0
0.834366 0.042340 0.0
0.805452 0.021320 0.0
0.783705 -0.004888 0.0
0.770896 -0.036292 0.0
0.767415 -0.070942 0.0
0.772516 -0.105676 0.0
0.784877 -0.137368 0.0
0.803146 -0.163426 0.0
0.826179 -0.181774 0.0
0.853059 -0.190720 0.0
0.883014 -0.188917 0.0
0.915314 -0.175489 0.0
0.949163 -0.150277 0.0
0.983610 -0.114145 0.0
1.017448 -0.069248 0.0
1.048995 -0.019275 0.0
1.075758 0.029738 0.0
1.095870 0.073099 0.0
1.108818 0.108442 0.0
1.114471 0.134254 0.0
1.112962 0.149956 0.0
1.104651 0.155941 0.0
1.090121 0.153495 0.0
1.070176 0.144612 0.0
1.045800 0.131698 0.0
1.018082 0.117220 0.0
0.988150 0.103289 0.0
0.957141 0.091256 0.0
0.926219 0.081460 0.0
0.896591 0.073300 0.0
0.869469 0.065690 0.0
0.845966 0.057696 0.0
0.826956 0.049056 0.0
0.813205 0.039879 0.0
1.000629 -0.013001 0.0
1.003249 -0.039814 0.0
1.008967 -0.068865 0.0
1.018876 -0.101553 0.0
1.034904 -0.139121 0.0
1.060107 -0.182268 0.0
1.098909 -0.230352 0.0
1.156112 -0.278325 0.0
1.240221 -0.326949 0.0
1.327155 -0.307716 0.0
1.384369 -0.264285 0.0
1.415592 -0.221337 0.0
1.431061 -0.184679 0.0
1.437808 -0.155275 0.0
1.440636 -0.133058 0.0
1.443453 -0.116864 0.0
1.449623 -0.104269 0.0
1.461855 -0.091445 0.0
1.481401 -0.072917 0.0
1.506133 -0.042274 0.0
1.528271 0.003660 0.0
1.539017 0.057763 0.0
1.534776 0.112766 0.0
1.516120 0.163188 0.0
1.485359 0.205694 0.0
1.445273 0.238701 0.0
1.398523 0.261781 0.0
1.347429 0.275150 0.0
1.293968 0.279311 0.0
1.239839 0.274837 0.0
1.186553 0.262270 0.0
1.135505 0.242079 0.0
1.088032 0.214720 0.0
1.045353 0.180843 0.0
1.008182 0.141733 0.0
0.975827 0.099728 0.0
0.945303 0.057663 0.0
0.911881 0.017115 0.0
0.872004 -0.023171 0.0
0.828459 -0.066632 0.0
0.790756 -0.115182 0.0
0.768830 -0.167623 0.0
0.767573 -0.217620 0.0
0.786315 -0.256731 0.0
0.821913 -0.277335 0.0
0.871018 -0.273798 0.0
0.930442 -0.243225 0.0
0.996611 -0.186381 0.0
1.064696 -0.108697 0.0
1.127141 -0.021375 0.0
1.174865 0.058046 0.0
1.204497 0.121552 0.0
1.218315 0.169429 0.0
1.218911 0.203018 0.0
1.208876 0.224137 0.0
1.190619 0.234732 0.0
1.166259 0.236669 0.0
1.137556 0.231630 0.0
1.105895 0.221074 0.0
1.072292 0.206282 0.0
1.037387 0.188491 0.0
1.001413 0.169075 0.0
0.964205 0.149591 0.0
0.925468 0.131333 0.0
0.885413 0.114384 0.0
0.845487 0.096892 0.0
0.808543 0.075572 0.0
0.778009 0.047537 0.0
0.756521 0.012130 0.0
0.744904 -0.028885 0.0
0.742321 -0.072286 0.0
0.747248 -0.114358 0.0
0.758174 -0.151973 0.0
0.773871 -0.182787 0.0
0.793438 -0.205014 0.0
0.816260 -0.217183 0.0
0.841912 -0.218061 0.0
0.870032 -0.206764 0.0
0.900203 -0.183021 0.0
0.931844 -0.147489 0.0
0.964123 -0.102020 0.0
0.995864 -0.049792 0.0
1.025069 0.004287 0.0
1.049446 0.054061 0.0
1.067656 0.096321 0.0
1.079146 0.129233 0.0
1.083675 0.151957 0.0
1.081291 0.164636 0.0
1.072307 0.168314 0.0
1.057288 0.164758 0.0
1.037011 0.156205 0.0
1.012433 0.145009 0.0
0.984660 0.133204 0.0
0.954942 0.122069 0.0
0.924652 0.111859 0.0
0.895240 0.101941 0.0
0.868113 0.091297 0.0
0.844500 0.079205 0.0
0.825317 0.065739 0.0
0.811350 0.050915 0.0
1.000250 -0.013879 0.0
1.001333 -0.042639 0.0
1.003921 -0.074346 0.0
1.009074 -0.111134 0.0
1.018887 -0.155381 0.0
1.037248 -0.209572 0.0
1.071103 -0.275704 0.0
1.130910 -0.349984 0.0
1.243759 -0.452249 0.0
1.348200 -0.373790 0.0
1.380004 -0.287230 0.0
1.375530 -0.225141 0.0
1.358658 -0.179472 0.0
1.337131 -0.145701 0.0
1.314590 -0.122919 0.0
1.294512 -0.109742 0.0
1.280616 -0.103666 0.0
1.277322 -0.100986 0.0
1.289474 -0.095074 0.0
1.319734 -0.075109 0.0
1.362649 -0.028558 0.0
1.400050 0.041832 0.0
1.418449 0.114539 0.0
1.418239 0.180280 0.0
1.402749 0.234855 0.0
1.375447 0.276928 0.0
1.339210 0.306542 0.0
1.296360 0.324333 0.0
1.248837 0.331112 0.0
1.198341 0.327660 0.0
1.146429 0.314645 0.0
1.094580 0.292600 0.0
1.044274 0.261978 0.0
0.996966 0.223573 0.0
0.953286 0.179855 0.0
0.910722 0.136526 0.0
0.862111 0.100001 0.0
0.800844 0.069465 0.0
0.730964 0.034236 0.0
0.667993 -0.017522 0.0
0.628378 -0.086974 0.0
0.617035 -0.162563 0.0
0.627578 -0.231966 0.0
0.652786 -0.286335 0.0
0.688826 -0.319368 0.0
0.734279 -0.326323 0.0
0.788415 -0.304260 0.0
0.850049 -0.253149 0.0
0.916952 -0.176917 0.0
0.985310 -0.083959 0.0
1.047281 0.010935 0.0
1.095172 0.091140 0.0
1.127393 0.153802 0.0
1.145443 0.200000 0.0
1.151130 0.231504 0.0
1.146392 0.250360 0.0
1.133140 0.258653 0.0
1.113137 0.258352 0.0
1.087900 0.251248 0.0
1.058625 0.238986 0.0
1.026099 0.223217 0.0
0.990659 0.205764 0.0
0.952329 0.188441 0.0
0.911336 0.172213 0.0
0.868873 0.156023 0.0
0.827544 0.136508 0.0
0.790882 0.109561 0.0
0.762047 0.072915 0.0
0.742672 0.027614 0.0
0.732633 -0.022712 0.0
0.730635 -0.073878 0.0
0.735052 -0.122110 0.0
0.744444 -0.164540 0.0
0.757687 -0.199159 0.0
0.773986 -0.224508 0.0
0.792869 -0.239394 0.0
0.814126 -0.242758 0.0
0.837692 -0.233753 0.0
0.863490 -0.212001 0.0
0.891279 -0.177939 0.0
0.920543 -0.133114 0.0
0.950419 -0.080314 0.0
0.979587 -0.023562 0.0
1.005876 0.031244 0.0
1.027307 0.079496 0.0
1.042911 0.118966 0.0
1.052120 0.148486 0.0
1.054701 0.167910 0.0
1.050715 0.178009 0.0
1.040491 0.180306 0.0
1.024609 0.176817 0.0
1.003884 0.169701 0.0
0.979362 0.160806 0.0
0.952313 0.151234 0.0
0.924180 0.141117 0.0
0.896477 0.129799 0.0
0.870648 0.116394 0.0
0.847928 0.100442 0.0
0.829253 0.082359 0.0
0.815490 0.062026 0.0
0.999749 -0.013878 0.0
0.998770 -0.042745 0.0
0.997006 -0.075064 0.0
0.995057 -0.113620 0.0
0.994399 -0.162048 0.0
0.998488 -0.225355 0.0
1.015393 -0.310680 0.0
1.062762 -0.422184 0.0
1.202807 -0.632942 0.0
1.298523 -0.393254 0.0
1.250170 -0.251216 0.0
1.179320 -0.185830 0.0
1.118689 -0.141281 0.0
1.063835 -0.107511 0.0
1.011697 -0.086430 0.0
0.963486 -0.077941 0.0
0.922509 -0.080593 0.0
0.895816 -0.094071 0.0
0.894323 -0.112648 0.0
0.926363 -0.119836 0.0
0.991090 -0.091472 0.0
1.071791 -0.013356 0.0
1.138816 0.084302 0.0
1.179290 0.170253 0.0
1.199211 0.240451 0.0
1.202998 0.294848 0.0
1.193512 0.334345 0.0
1.172872 0.360021 0.0
1.142917 0.372902 0.0
1.105383 0.373899 0.0
1.061910 0.363792 0.0
1.013943 0.343270 0.0
0.962280 0.313276 0.0
0.905628 0.276235 0.0
0.838823 0.237678 0.0
0.755733 0.204357 0.0
0.659997 0.176517 0.0
0.571260 0.142953 0.0
0.512866 0.089022 0.0
0.493188 0.010342 0.0
0.501295 -0.083330 0.0
0.521677 -0.175246 0.0
0.546651 -0.254799 0.0
0.574516 -0.316575 0.0
0.606058 -0.356710 0.0
0.643032 -0.371408 0.0
0.687131 -0.357409 0.0
0.739092 -0.313595 0.0
0.798240 -0.242521 0.0
0.862431 -0.150904 0.0
0.927678 -0.049338 0.0
0.985949 0.045250 0.0
1.031224 0.122194 0.0
1.063200 0.181583 0.0
1.082622 0.224812 0.0
1.090669 0.253743 0.0
1.088753 0.270438 0.0
1.078347 0.276976 0.0
1.060837 0.275370 0.0
1.037380 0.267596 0.0
1.008782 0.255730 0.0
0.975509 0.241965 0.0
0.937978 0.228099 0.0
0.897196 0.214328 0.0
0.855364 0.198203 0.0
0.815820 0.175202 0.0
0.782050 0.141299 0.0
0.756420 0.095642 0.0
0.739609 0.041073 0.0
0.731007 -0.017528 0.0
0.729377 -0.075433 0.0
0.733320 -0.128915 0.0
0.741526 -0.175333 0.0
0.752880 -0.212962 0.0
0.766545 -0.240670 0.0
0.782038 -0.257608 0.0
0.799236 -0.262999 0.0
0.818285 -0.256128 0.0
0.839417 -0.236557 0.0
0.862741 -0.204496 0.0
0.888078 -0.161159 0.0
0.914876 -0.108943 0.0
0.942167 -0.051392 0.0
0.968260 0.006692 0.0
0.991109 0.059768 0.0
1.009244 0.104955 0.0
1.021818 0.140714 0.0
1.028340 0.166578 0.0
1.028637 0.183030 0.0
1.022825 0.191321 0.0
1.011297 0.193211 0.0
0.994729 0.190600 0.0
0.974077 0.185081 0.0
0.950556 0.177530 0.0
0.925564 0.167946 0.0
0.900558 0.155678 0.0
0.876908 0.139994 0.0
0.855791 0.120679 0.0
0.838153 0.098434 0.0
0.824957 0.072911 0.0
0.999182 -0.012808 0.0
0.995847 -0.039501 0.0
0.988972 -0.069668 0.0
0.978218 -0.106315 0.0
0.963289 -0.153766 0.0
0.944561 -0.218999 0.0
0.925304 -0.314683 0.0
0.920041 -0.460286 0.0
1.013022 -0.827867 0.0
1.009992 -0.191614 0.0
0.821956 -0.106445 0.0
0.677262 -0.104438 0.0
0.593357 -0.078137 0.0
0.523870 -0.046315 0.0
0.453741 -0.025358 0.0
0.391823 -0.028885 0.0
0.356274 -0.053124 0.0
0.356188 -0.094760 0.0
0.391624 -0.145902 0.0
0.458235 -0.185234 0.0
0.549496 -0.182062 0.0
0.658794 -0.112765 0.0
0.768076 0.007403 0.0
0.854377 0.120377 0.0
0.915021 0.209761 0.0
0.956633 0.280139 0.0
0.981316 0.333856 0.0
0.990243 0.372223 0.0
0.984681 0.396216 0.0
0.966069 0.406731 0.0
0.935782 0.404721 0.0
0.894566 0.391524 0.0
0.841411 0.369840 0.0
0.772884 0.344850 0.0
0.686756 0.321996 0.0
0.590725 0.299160 0.0
0.505299 0.262876 0.0
0.451282 0.199348 0.0
0.434438 0.107864 0.0
0.445124 0.000493 0.0
0.469152 -0.105616 0.0
0.496586 -0.200775 0.0
0.523089 -0.280747 0.0
0.547699 -0.343102 0.0
0.571587 -0.385613 0.0
0.597417 -0.405310 0.0
0.628470 -0.398660 0.0
0.667354 -0.363189 0.0
0.714933 -0.299655 0.0
0.770115 -0.213144 0.0
0.830217 -0.112446 0.0
0.890091 -0.009786 0.0
0.942583 0.079462 0.0
0.983724 0.151198 0.0
1.013296 0.206202 0.0
1.031681 0.245921 0.0
1.039668 0.272189 0.0
1.038273 0.287027 0.0
1.028558 0.292545 0.0
1.011468 0.290969 0.0
0.987732 0.284691 0.0
0.957956 0.276053 0.0
0.923040 0.266458 0.0
0.884762 0.255030 0.0
0.846037 0.238058 0.0
0.810384 0.210544 0.0
0.780778 0.169332 0.0
0.758771 0.115246 0.0
0.744501 0.052549 0.0
0.737306 -0.013208 0.0
0.736209 -0.077027 0.0
0.740074 -0.135129 0.0
0.747690 -0.184940 0.0
0.757895 -0.224913 0.0
0.769732 -0.254222 0.0
0.782602 -0.272419 0.0
0.796347 -0.279131 0.0
0.811220 -0.273918 0.0
0.827706 -0.256386 0.0
0.846265 -0.226549 0.0
0.867082 -0.185260 0.0
0.889930 -0.134488 0.0
0.914124 -0.077332 0.0
0.938486 -0.017823 0.0
0.961170 0.038751 0.0
0.980406 0.088601 0.0
0.995103 0.129799 0.0
1.004539 0.161535 0.0
1.008331 0.183984 0.0
1.006404 0.198107 0.0
0.998984 0.205373 0.0
0.986605 0.207385 0.0
0.970107 0.205446 0.0
0.950597 0.200197 0.0
0.929349 0.191518 0.0
0.907678 0.178783 0.0
0.886812 0.161407 0.0
0.867831 0.139365 0.0
0.851668 0.113549 0.0
0.839373 0.083286 0.0
0.998656 -0.010646 0.0
0.993124 -0.032798 0.0
0.981416 -0.057787 0.0
0.962074 -0.088100 0.0
0.932389 -0.127367 0.0
0.887365 -0.181647 0.0
0.817134 -0.262547 0.0
0.703298 -0.393323 0.0
0.316267 -0.700183 0.0
-0.458370 0.242620 0.0
-0.458370 0.000000 0.0
-0.038946 -0.027785 0.0
-0.082345 -0.038646 0.0
-0.074441 -0.024225 0.0
-0.034892 -0.016867 0.0
0.013628 -0.023977 0.0
0.045401 -0.054256 0.0
0.064889 -0.113031 0.0
0.090369 -0.188548 0.0
0.135784 -0.254614 0.0
0.207486 -0.275646 0.0
0.304456 -0.225449 0.0
0.419893 -0.104632 0.0
0.531828 0.034177 0.0
0.622647 0.144497 0.0
0.694183 0.232254 0.0
0.748062 0.303179 0.0
0.783716 0.358319 0.0
0.801224 0.398174 0.0
0.801118 0.423491 0.0
0.783755 0.435610 0.0
0.748542 0.437064 0.0
0.693879 0.432118 0.0
0.620259 0.424718 0.0
0.536681 0.411835 0.0
0.462437 0.379596 0.0
0.416675 0.313628 0.0
0.405271 0.214016 0.0
0.420499 0.094811 0.0
0.449922 -0.026562 0.0
0.483312 -0.135979 0.0
0.514854 -0.229388 0.0
0.541846 -0.305631 0.0
0.563346 -0.364329 0.0
0.580135 -0.405062 0.0
0.594844 -0.426400 0.0
0.611635 -0.425415 0.0
0.634963 -0.398647 0.0
0.667798 -0.344611 0.0
0.710503 -0.266074 0.0
0.761075 -0.170189 0.0
0.815984 -0.066825 0.0
0.869034 0.030960 0.0
0.914447 0.113147 0.0
0.950186 0.178942 0.0
0.975806 0.229176 0.0
0.991451 0.265302 0.0
0.997609 0.289151 0.0
0.994922 0.302824 0.0
0.984028 0.308674 0.0
0.965530 0.309221 0.0
0.940191 0.306639 0.0
0.909372 0.301606 0.0
0.875429 0.292103 0.0
0.841580 0.273560 0.0
0.811075 0.241200 0.0
0.786204 0.193152 0.0
0.767914 0.131722 0.0
0.756170 0.062087 0.0
0.750504 -0.009883 0.0
0.750235 -0.078987 0.0
0.754440 -0.141240 0.0
0.761975 -0.193980 0.0
0.771630 -0.235733 0.0
0.782324 -0.265932 0.0
0.793296 -0.284550 0.0
0.804262 -0.291712 0.0
0.815462 -0.287409 0.0
0.827536 -0.271454 0.0
0.841257 -0.243760 0.0
0.857206 -0.204816 0.0
0.875533 -0.156107 0.0
0.895869 -0.100244 0.0
0.917364 -0.040768 0.0
0.938531 0.017845 0.0
0.957629 0.071171 0.0
0.973324 0.116838 0.0
0.984703 0.153679 0.0
0.991203 0.181547 0.0
0.992580 0.201094 0.0
0.988908 0.213478 0.0
0.980584 0.219983 0.0
0.968312 0.221617 0.0
0.953047 0.218801 0.0
0.935892 0.211316 0.0
0.917970 0.198578 0.0
0.900328 0.180120 0.0
0.883919 0.156041 0.0
0.869634 0.127321 0.0
0.858570 0.092874 0.0
0.998289 -0.007591 0.0
0.991239 -0.023271 0.0
0.976228 -0.040595 0.0
0.951147 -0.060870 0.0
0.911935 -0.085701 0.0
0.850759 -0.117114 0.0
0.751249 -0.157340 0.0
0.574935 -0.208380 0.0
0.230378 -0.249687 0.0
0.000000 0.242620 0.0
-0.000000 -0.000000 0.0
0.000000 0.000000 0.0
-0.017791 -0.017096 0.0
-0.043094 -0.029072 0.0
-0.054841 -0.039822 0.0
-0.071762 -0.032620 0.0
-0.100964 -0.048184 0.0
-0.129274 -0.110281 0.0
-0.141102 -0.204950 0.0
-0.128028 -0.296701 0.0
-0.085575 -0.347714 0.0
-0.005469 -0.330455 0.0
0.109401 -0.229933 0.0
0.239618 -0.082675 0.0
0.357751 0.052398 0.0
0.451828 0.158741 0.0
0.526455 0.248186 0.0
0.581598 0.322517 0.0
0.616415 0.381651 0.0
0.630307 0.426229 0.0
0.622544 0.457998 0.0
0.592565 0.479870 0.0
0.542294 0.494245 0.0
0.480532 0.497972 0.0
0.424382 0.478310 0.0
0.391575 0.420171 0.0
0.389089 0.321301 0.0
0.411342 0.195495 0.0
0.448152 0.061293 0.0
0.489732 -0.064048 0.0
0.529313 -0.171463 0.0
0.563786 -0.259919 0.0
0.591305 -0.329610 0.0
0.610891 -0.381436 0.0
0.622698 -0.416551 0.0
0.628533 -0.435455 0.0
0.632266 -0.436884 0.0
0.639353 -0.417592 0.0
0.655024 -0.374171 0.0
0.682054 -0.306249 0.0
0.719845 -0.218378 0.0
0.765291 -0.118991 0.0
0.813670 -0.018304 0.0
0.859027 0.071641 0.0
0.897250 0.146487 0.0
0.927055 0.206206 0.0
0.947945 0.251737 0.0
0.959875 0.284628 0.0
0.963038 0.306871 0.0
0.957756 0.320803 0.0
0.944517 0.328828 0.0
0.924245 0.332642 0.0
0.898667 0.332000 0.0
0.870434 0.323884 0.0
0.842674 0.303388 0.0
0.818090 0.266461 0.0
0.798299 0.212554 0.0
0.783867 0.145042 0.0
0.774803 0.069574 0.0
0.770907 -0.007807 0.0
0.771749 -0.081637 0.0
0.776552 -0.147598 0.0
0.784237 -0.202841 0.0
0.793596 -0.245887 0.0
0.803480 -0.276357 0.0
0.812998 -0.294614 0.0
0.821704 -0.301321 0.0
0.829724 -0.297020 0.0
0.837723 -0.281917 0.0
0.846691 -0.255987 0.0
0.857584 -0.219430 0.0
0.870976 -0.173212 0.0
0.886874 -0.119374 0.0
0.904711 -0.060970 0.0
0.923372 -0.001781 0.0
0.941301 0.053769 0.0
0.957022 0.102824 0.0
0.969479 0.143857 0.0
0.977957 0.176392 0.0
0.982068 0.200761 0.0
0.981751 0.217800 0.0
0.977264 0.228472 0.0
0.969162 0.233502 0.0
0.958226 0.233116 0.0
0.945357 0.227025 0.0
0.931463 0.214686 0.0
0.917395 0.195723 0.0
0.903952 0.170288 0.0
0.891944 0.139366 0.0
0.882453 0.101385 0.0
0.998158 -0.004038 0.0
0.990584 -0.012199 0.0
0.974546 -0.020618 0.0
0.948055 -0.029274 0.0
0.907581 -0.037611 0.0
0.847325 -0.043772 0.0
0.758684 -0.042531 0.0
0.631002 -0.019192 0.0
0.471970 0.067967 0.0
0.193973 0.175515 0.0
0.000000 0.000000 0.0
-0.000000 -0.000000 0.0
0.000000 0.000000 0.0
-0.012685 -0.010781 0.0
-0.050366 -0.010590 0.0
-0.117062 0.021765 0.0
-0.194079 0.003650 0.0
-0.250557 -0.077326 0.0
-0.275771 -0.200863 0.0
-0.272147 -0.317485 0.0
-0.247667 -0.393863 0.0
-0.201872 -0.410206 0.0
-0.118361 -0.348563 0.0
0.006226 -0.218848 0.0
0.137394 -0.060730 0.0
0.246452 0.068734 0.0
0.332892 0.177125 0.0
0.399733 0.271593 0.0
0.445594 0.351895 0.0
0.469222 0.418466 0.0
0.470212 0.472534 0.0
0.450695 0.514830 0.0
0.418141 0.542109 0.0
0.386524 0.543487 0.0
0.371402 0.504067 0.0
0.380800 0.417822 0.0
0.411876 0.295059 0.0
0.456643 0.154718 0.0
0.507200 0.014703 0.0
0.556308 -0.108146 0.0
0.599510 -0.210147 0.0
0.635197 -0.291395 0.0
0.662262 -0.352718 0.0
0.680049 -0.395702 0.0
0.688448 -0.422492 0.0
0.688310 -0.435210 0.0
0.682220 -0.434772 0.0
0.675060 -0.419631 0.0
0.673227 -0.385969 0.0
0.682201 -0.330455 0.0
0.704064 -0.253825 0.0
0.737022 -0.161948 0.0
0.776984 -0.063689 0.0
0.818321 0.030332 0.0
0.855955 0.111938 0.0
0.887321 0.179582 0.0
0.911267 0.233525 0.0
0.927235 0.274942 0.0
0.935009 0.305619 0.0
0.934638 0.327709 0.0
0.926550 0.343250 0.0
0.911816 0.353225 0.0
0.892377 0.356434 0.0
0.870890 0.349169 0.0
0.850085 0.326668 0.0
0.831996 0.285853 0.0
0.817658 0.227291 0.0
0.807418 0.154977 0.0
0.801384 0.074736 0.0
0.799574 -0.007261 0.0
0.801726 -0.085178 0.0
0.807167 -0.154300 0.0
0.814908 -0.211564 0.0