# vtk DataFile Version 3.0
Vector Field
ASCII
DATASET RECTILINEAR_GRID
DIMENSIONS 100 26 1
X_COORDINATES 100 double
0.050000 0.150000 0.250000 0.350000 0.450000 0.550000 0.650000 0.750000 0.850000 0.950000 1.050000 1.150000 1.250000 1.350000 1.450000 1.550000 1.650000 1.750000 1.850000 1.950000 2.050000 2.150000 2.250000 2.350000 2.450000 2.550000 2.650000 2.750000 2.850000 2.950000 3.050000 3.150000 3.250000 3.350000 3.450000 3.550000 3.650000 3.750000 3.850000 3.950000 4.050000 4.150000 4.250000 4.350000 4.450000 4.550000 4.650000 4.750000 4.850000 4.950000 5.050000 5.150000 5.250000 5.350000 5.450000 5.550000 5.650000 5.750000 5.850000 5.950000 6.050000 6.150000 6.250000 6.350000 6.450000 6.550000 6.650000 6.750000 6.850000 6.950000 7.050000 7.150000 7.250000 7.350000 7.450000 7.550000 7.650000 7.750000 7.850000 7.950000 8.050000 8.150000 8.250000 8.350000 8.450000 8.550000 8.650000 8.750000 8.850000 8.950000 9.050000 9.150000 9.250000 9.350000 9.450000 9.550000 9.650000 9.750000 9.850000 9.950000 
Y_COORDINATES 26 double
0.050000 0.150000 0.250000 0.350000 0.450000 0.550000 0.650000 0.750000 0.850000 0.950000 1.050000 1.150000 1.250000 1.350000 1.450000 1.550000 1.650000 1.750000 1.850000 1.950000 2.050000 2.150000 2.250000 2.350000 2.450000 2.550000 
Z_COORDINATES 1 double
0.0
POINT_DATA 2600
VECTORS Vektorfeld double
1.000829 -0.000829 0.0
1.004585 -0.002926 0.0
1.012667 -0.005156 0.0
1.025223 -0.007400 0.0
1.042190 -0.009566 0.0
1.063289 -0.011534 0.0
1.087972 -0.013149 0.0
1.115354 -0.014233 0.0
1.144212 -0.014625 0.0
1.173074 -0.014238 0.0
1.200437 -0.013124 0.0
1.225021 -0.011460 0.0
1.245966 -0.009485 0.0
1.262892 -0.007441 0.0
1.275871 -0.005538 0.0
1.285345 -0.003935 0.0
1.292020 -0.002739 0.0
1.296764 -0.002005 0.0
1.300504 -0.001735 0.0
1.304113 -0.001874 0.0
1.308289 -0.002302 0.0
1.313417 -0.002826 0.0
1.319445 -0.003202 0.0
1.325814 -0.003166 0.0
1.331490 -0.002510 0.0
1.335151 -0.001151 0.0
1.335433 0.000869 0.0
1.331150 0.003414 0.0
1.321477 0.006259 0.0
1.306053 0.009164 0.0
1.284969 0.011920 0.0
1.258687 0.014362 0.0
1.227947 0.016378 0.0
1.193666 0.017902 0.0
1.156862 0.018901 0.0
1.118596 0.019365 0.0
1.079934 0.019297 0.0
1.041934 0.018704 0.0
1.005635 0.017595 0.0
0.972065 0.015975 0.0
0.942254 0.013836 0.0
0.917263 0.011155 0.0
0.898228 0.007880 0.0
0.886375 0.003974 0.0
0.882842 -0.000441 0.0
0.888267 -0.004983 0.0
0.902695 -0.009445 0.0
0.925796 -0.013657 0.0
0.956860 -0.017407 0.0
0.994698 -0.020431 0.0
1.037552 -0.022423 0.0
1.083032 -0.023058 0.0
1.128129 -0.022040 0.0
1.169376 -0.019208 0.0
1.203259 -0.014675 0.0
1.226869 -0.008935 0.0
1.238612 -0.002808 0.0
1.238365 0.003055 0.0
1.226894 0.008416 0.0
1.205407 0.013071 0.0
1.175475 0.016860 0.0
1.138928 0.019687 0.0
1.097722 0.021519 0.0
1.053837 0.022366 0.0
1.009212 0.022259 0.0
0.965720 0.021232 0.0
0.925172 0.019316 0.0
0.889293 0.016562 0.0
0.859645 0.013085 0.0
0.837458 0.009101 0.0
0.823427 0.004930 0.0
0.817514 0.000983 0.0
0.818755 -0.002224 0.0
0.825569 -0.004591 0.0
0.836500 -0.006340 0.0
0.850562 -0.007722 0.0
0.867243 -0.008958 0.0
0.886418 -0.010217 0.0
0.908234 -0.011600 0.0
0.932961 -0.013128 0.0
0.960817 -0.014728 0.0
0.991786 -0.016241 0.0
1.025460 -0.017434 0.0
1.060923 -0.018029 0.0
1.096687 -0.017736 0.0
1.130719 -0.016296 0.0
1.160572 -0.013557 0.0
1.183706 -0.009577 0.0
1.198004 -0.004720 0.0
1.202290 0.000434 0.0
1.196367 0.005489 0.0
1.180634 0.010244 0.0
1.155985 0.014406 0.0
1.123977 0.017602 0.0
1.086970 0.019406 0.0
1.048133 0.019431 0.0
1.011203 0.017499 0.0
0.979865 0.013838 0.0
0.956959 0.009068 0.0
0.942499 0.005393 0.0
1.001380 -0.003039 0.0
1.006546 -0.009638 0.0
1.016455 -0.016436 0.0
1.031016 -0.023239 0.0
1.050143 -0.029820 0.0
1.073605 -0.035841 0.0
1.100908 -0.040827 0.0
1.131178 -0.044207 0.0
1.163112 -0.045442 0.0
1.195047 -0.044218 0.0
1.225241 -0.040701 0.0
1.252250 -0.035478 0.0
1.275166 -0.029328 0.0
1.293654 -0.023011 0.0
1.307871 -0.017165 0.0
1.318355 -0.012266 0.0
1.325903 -0.008631 0.0
1.331471 -0.006424 0.0
1.336073 -0.005658 0.0
1.340689 -0.006177 0.0
1.346142 -0.007627 0.0
1.352950 -0.009437 0.0
1.361168 -0.010838 0.0
1.370258 -0.010988 0.0
1.379082 -0.009187 0.0
1.386057 -0.005110 0.0
1.389485 0.001116 0.0
1.387952 0.008984 0.0
1.380564 0.017751 0.0
1.366995 0.026666 0.0
1.347417 0.035080 0.0
1.322400 0.042501 0.0
1.292778 0.048600 0.0
1.259552 0.053188 0.0
1.223795 0.056177 0.0
1.186604 0.057547 0.0
1.149068 0.057313 0.0
1.112251 0.055505 0.0
1.077193 0.052152 0.0
1.044904 0.047276 0.0
1.016363 0.040887 0.0
0.992476 0.032982 0.0
0.974001 0.023562 0.0
0.961456 0.012691 0.0
0.955206 0.000624 0.0
0.955848 -0.012115 0.0
0.964181 -0.025073 0.0
0.980723 -0.037672 0.0
1.005445 -0.049178 0.0
1.037729 -0.058783 0.0
1.076425 -0.065620 0.0
1.119840 -0.068755 0.0
1.165656 -0.067255 0.0
1.210860 -0.060444 0.0
1.251855 -0.048316 0.0
1.284863 -0.031913 0.0
1.306620 -0.013331 0.0
1.315387 0.005057 0.0
1.311450 0.021823 0.0
1.296297 0.036305 0.0
1.271810 0.048045 0.0
1.240059 0.056800 0.0
1.203166 0.062505 0.0
1.163211 0.065219 0.0
1.122175 0.065067 0.0
1.081900 0.062191 0.0
1.044048 0.056759 0.0
1.010015 0.049031 0.0
0.980807 0.039473 0.0
0.956895 0.028812 0.0
0.938165 0.017981 0.0
0.924080 0.007931 0.0
0.914222 -0.000554 0.0
0.908384 -0.007238 0.0
0.906203 -0.012442 0.0
0.907253 -0.016733 0.0
0.911306 -0.020681 0.0
0.918414 -0.024777 0.0
0.928909 -0.029350 0.0
0.943290 -0.034486 0.0
0.962042 -0.039977 0.0
0.985418 -0.045337 0.0
1.013283 -0.049877 0.0
1.045032 -0.052797 0.0
1.079585 -0.053285 0.0
1.115428 -0.050622 0.0
1.150660 -0.044316 0.0
1.183004 -0.034297 0.0
1.209835 -0.021129 0.0
1.228458 -0.006067 0.0
1.237152 0.009219 0.0
1.235967 0.023432 0.0
1.226116 0.035717 0.0
1.209317 0.045096 0.0
1.187696 0.050540 0.0
1.163627 0.051203 0.0
1.139478 0.046806 0.0
1.117317 0.038029 0.0
1.098576 0.026524 0.0
1.084589 0.016384 0.0
1.001271 -0.005690 0.0
1.006272 -0.017153 0.0
1.016180 -0.028737 0.0
1.031021 -0.040340 0.0
1.050857 -0.051682 0.0
1.075643 -0.062229 0.0
1.105052 -0.071150 0.0
1.138254 -0.077356 0.0
1.173761 -0.079734 0.0
1.209393 -0.077493 0.0
1.242741 -0.070968 0.0
1.271924 -0.061402 0.0
1.295924 -0.050319 0.0
1.314522 -0.039105 0.0
1.328087 -0.028855 0.0
1.337387 -0.020361 0.0
1.343438 -0.014136 0.0
1.347402 -0.010451 0.0
1.350512 -0.009343 0.0
1.353986 -0.010583 0.0
1.358920 -0.013609 0.0
1.366103 -0.017446 0.0
1.375758 -0.020702 0.0
1.387293 -0.021750 0.0
1.399215 -0.019172 0.0
1.409386 -0.012271 0.0
1.415604 -0.001369 0.0
1.416167 0.012440 0.0
1.410103 0.027746 0.0
1.397158 0.043184 0.0
1.377676 0.057620 0.0
1.352422 0.070233 0.0
1.322407 0.080506 0.0
1.288747 0.088168 0.0
1.252579 0.093121 0.0
1.215004 0.095368 0.0
1.177064 0.094967 0.0
1.139736 0.091995 0.0
1.103929 0.086527 0.0
1.070482 0.078636 0.0
1.040157 0.068392 0.0
1.013647 0.055873 0.0
0.991611 0.041182 0.0
0.974769 0.024458 0.0
0.963980 0.005896 0.0
0.960124 -0.014172 0.0
0.963808 -0.035032 0.0
0.975163 -0.055611 0.0
0.993921 -0.074719 0.0
1.019658 -0.091262 0.0
1.051948 -0.104127 0.0
1.090240 -0.111956 0.0
1.133494 -0.113124 0.0
1.179785 -0.106069 0.0
1.226046 -0.089947 0.0
1.268129 -0.065372 0.0
1.301370 -0.034868 0.0
1.321860 -0.002663 0.0
1.328297 0.027043 0.0
1.321943 0.052592 0.0
1.304936 0.073251 0.0
1.279593 0.088688 0.0
1.248219 0.098884 0.0
1.212978 0.104035 0.0
1.175813 0.104452 0.0
1.138385 0.100508 0.0
1.102031 0.092647 0.0
1.067735 0.081472 0.0
1.036127 0.067848 0.0
1.007560 0.052916 0.0
0.982225 0.037944 0.0
0.960240 0.024038 0.0
0.941595 0.011841 0.0
0.926178 0.001622 0.0
0.913847 -0.006789 0.0
0.904434 -0.014024 0.0
0.897957 -0.020965 0.0
0.894807 -0.028452 0.0
0.895714 -0.037077 0.0
0.901547 -0.046973 0.0
0.913014 -0.057709 0.0
0.930413 -0.068380 0.0
0.953519 -0.077806 0.0
0.981628 -0.084726 0.0
1.013662 -0.087942 0.0
1.048280 -0.086425 0.0
1.083959 -0.079423 0.0
1.119041 -0.066617 0.0
1.151740 -0.048340 0.0
1.180113 -0.025852 0.0
1.202001 -0.001577 0.0
1.215907 0.021508 0.0
1.221911 0.041489 0.0
1.221056 0.056978 0.0
1.214667 0.066669 0.0
1.204169 0.069641 0.0
1.190939 0.065747 0.0
1.176255 0.055933 0.0
1.161375 0.042242 0.0
1.148659 0.027370 0.0
1.001226 -0.008188 0.0
1.006125 -0.024554 0.0
1.015993 -0.041111 0.0
1.031071 -0.057884 0.0
1.051708 -0.074611 0.0
1.078230 -0.090609 0.0
1.110686 -0.104635 0.0
1.148453 -0.114840 0.0
1.189871 -0.119175 0.0
1.231730 -0.115544 0.0
1.270171 -0.104707 0.0
1.302538 -0.089213 0.0
1.327794 -0.071764 0.0
1.346063 -0.054527 0.0
1.358135 -0.039071 0.0
1.365156 -0.026466 0.0
1.368464 -0.017389 0.0
1.369500 -0.012199 0.0
1.369777 -0.010982 0.0
1.370852 -0.013494 0.0
1.374253 -0.019033 0.0
1.381277 -0.026227 0.0
1.392583 -0.032881 0.0
1.407669 -0.036193 0.0
1.424558 -0.033541 0.0
1.440060 -0.023574 0.0
1.450731 -0.006955 0.0
1.454085 0.014110 0.0
1.449016 0.037208 0.0
1.435507 0.060177 0.0
1.414292 0.081323 0.0
1.386563 0.099512 0.0
1.353700 0.114106 0.0
1.317090 0.124838 0.0
1.278034 0.131675 0.0
1.237709 0.134715 0.0
1.197157 0.134112 0.0
1.157304 0.130032 0.0
1.118968 0.122633 0.0
1.082884 0.112062 0.0
1.049723 0.098451 0.0
1.020135 0.081913 0.0
0.994791 0.062522 0.0
0.974409 0.040342 0.0
0.959646 0.015564 0.0
0.950880 -0.011219 0.0
0.948048 -0.038838 0.0
0.950770 -0.065881 0.0
0.958782 -0.091220 0.0
0.972416 -0.114133 0.0
0.992616 -0.133747 0.0
1.020412 -0.148423 0.0
1.056192 -0.155692 0.0
1.099199 -0.152798 0.0
1.147302 -0.137582 0.0
1.196937 -0.109456 0.0
1.243187 -0.070276 0.0
1.280242 -0.024801 0.0
1.303168 0.019818 0.0
1.310891 0.058449 0.0
1.305469 0.089823 0.0
1.289444 0.113486 0.0
1.265401 0.129503 0.0
1.235771 0.138287 0.0
1.202684 0.140452 0.0
1.167895 0.136726 0.0
1.132747 0.127932 0.0
1.098191 0.115041 0.0
1.064867 0.099211 0.0
1.033224 0.081762 0.0
1.003609 0.064047 0.0
0.976267 0.047261 0.0
0.951281 0.032249 0.0
0.928545 0.019367 0.0
0.907933 0.008409 0.0
0.889573 -0.001449 0.0
0.874029 -0.011518 0.0
0.862362 -0.023081 0.0
0.855896 -0.036889 0.0
0.855778 -0.052876 0.0
0.862615 -0.070111 0.0
0.876351 -0.087111 0.0
0.896378 -0.102208 0.0
0.921750 -0.113805 0.0
0.951348 -0.120495 0.0
0.983983 -0.121125 0.0
1.018444 -0.114862 0.0
1.053505 -0.101321 0.0
1.087922 -0.080751 0.0
1.120381 -0.054273 0.0
1.149406 -0.024068 0.0
1.173127 0.006372 0.0
1.190323 0.033424 0.0
1.201134 0.055086 0.0
1.206192 0.069892 0.0
1.206215 0.076892 0.0
1.201981 0.075961 0.0
1.194395 0.067988 0.0
1.184640 0.054822 0.0
1.174867 0.037278 0.0
1.001162 -0.010576 0.0
1.005840 -0.031741 0.0
1.015402 -0.053355 0.0
1.030355 -0.075671 0.0
1.051484 -0.098591 0.0
1.079737 -0.121405 0.0
1.115923 -0.142481 0.0
1.160034 -0.158872 0.0
1.210660 -0.167187 0.0
1.262450 -0.161181 0.0
1.308208 -0.143269 0.0
1.344206 -0.119016 0.0
1.369969 -0.092981 0.0
1.386543 -0.068152 0.0
1.395466 -0.046440 0.0
1.398413 -0.029066 0.0
1.397087 -0.016770 0.0
1.393187 -0.009954 0.0
1.388464 -0.008781 0.0
1.384805 -0.013111 0.0
1.384284 -0.022296 0.0
1.389017 -0.034722 0.0
1.400606 -0.047280 0.0
1.419145 -0.055420 0.0
1.442420 -0.054477 0.0
1.465947 -0.041666 0.0
1.484170 -0.017758 0.0
1.492770 0.012960 0.0
1.490132 0.046064 0.0
1.476657 0.078307 0.0
1.453717 0.107348 0.0
1.423132 0.131800 0.0
1.386787 0.151027 0.0
1.346420 0.164894 0.0
1.303547 0.173547 0.0
1.259458 0.177257 0.0
1.215244 0.176336 0.0
1.171828 0.171077 0.0
1.130009 0.161743 0.0
1.090491 0.148554 0.0
1.053923 0.131687 0.0
1.020923 0.111266 0.0
0.992049 0.087387 0.0
0.967665 0.060244 0.0
0.947699 0.030390 0.0
0.931504 -0.001085 0.0
0.918174 -0.032811 0.0
0.907241 -0.063697 0.0
0.899401 -0.093577 0.0
0.896829 -0.122837 0.0
0.902463 -0.150877 0.0
0.918613 -0.175239 0.0
0.946057 -0.192100 0.0
0.984017 -0.197357 0.0
1.030535 -0.187644 0.0
1.082718 -0.161212 0.0
1.136696 -0.118748 0.0
1.187435 -0.064124 0.0
1.228587 -0.004937 0.0
1.255168 0.048900 0.0
1.266645 0.093317 0.0
1.265138 0.127524 0.0
1.253094 0.151552 0.0
1.232972 0.165991 0.0
1.207041 0.171766 0.0
1.177247 0.169994 0.0
1.145150 0.161909 0.0
1.111928 0.148842 0.0
1.078441 0.132220 0.0
1.045308 0.113529 0.0
1.012952 0.094253 0.0
0.981589 0.075759 0.0
0.951253 0.059074 0.0
0.921948 0.044584 0.0
0.893966 0.031786 0.0
0.868183 0.019317 0.0
0.846033 0.005408 0.0
0.829130 -0.011436 0.0
0.818864 -0.031803 0.0
0.816067 -0.055047 0.0
0.820798 -0.079507 0.0
0.832479 -0.103131 0.0
0.850194 -0.123933 0.0
0.872933 -0.140191 0.0
0.899701 -0.150475 0.0
0.929557 -0.153637 0.0
0.961601 -0.148855 0.0
0.994952 -0.135742 0.0
1.028728 -0.114522 0.0
1.061997 -0.086230 0.0
1.093721 -0.052859 0.0
1.122607 -0.017444 0.0
1.146898 0.015753 0.0
1.165548 0.043297 0.0
1.178636 0.063536 0.0
1.186417 0.075444 0.0
1.189281 0.078780 0.0
1.187852 0.074183 0.0
1.183096 0.063139 0.0
1.176632 0.045199 0.0
1.001030 -0.012769 0.0
1.005204 -0.038400 0.0
1.013876 -0.064930 0.0
1.027847 -0.093019 0.0
1.048451 -0.122977 0.0
1.077568 -0.154388 0.0
1.117397 -0.185513 0.0
1.169439 -0.211994 0.0
1.234377 -0.229629 0.0
1.301630 -0.217780 0.0
1.355939 -0.186737 0.0
1.393518 -0.149125 0.0
1.416599 -0.111716 0.0
1.428265 -0.077657 0.0
1.431104 -0.048697 0.0
1.427294 -0.025946 0.0
1.418759 -0.010028 0.0
1.407222 -0.001258 0.0
1.394400 0.000068 0.0
1.382241 -0.006143 0.0
1.373214 -0.019715 0.0
1.370495 -0.039317 0.0
1.377349 -0.061128 0.0
1.395461 -0.078223 0.0
1.423385 -0.082871 0.0
1.456209 -0.069624 0.0
1.486177 -0.037991 0.0
1.505128 0.005642 0.0
1.509157 0.051991 0.0
1.499063 0.095950 0.0
1.477195 0.134513 0.0
1.446212 0.166203 0.0
1.408571 0.190609 0.0
1.366347 0.207904 0.0
1.321228 0.218528 0.0
1.274594 0.222999 0.0
1.227582 0.221820 0.0
1.181154 0.215436 0.0
1.136142 0.204216 0.0
1.093288 0.188453 0.0
1.053271 0.168373 0.0
1.016672 0.144179 0.0
0.983825 0.116196 0.0
0.954491 0.085154 0.0
0.927523 0.052414 0.0
0.900970 0.019639 0.0
0.873122 -0.012357 0.0
0.844581 -0.044675 0.0
0.819190 -0.079368 0.0
0.802432 -0.117715 0.0
0.798592 -0.157792 0.0
0.808988 -0.194870 0.0
0.832537 -0.223460 0.0
0.867209 -0.238629 0.0
0.910869 -0.236550 0.0
0.961336 -0.214956 0.0
1.016098 -0.173744 0.0
1.071910 -0.115679 0.0
1.124328 -0.046952 0.0
1.166938 0.021723 0.0
1.195467 0.080489 0.0
1.210176 0.127149 0.0
1.212736 0.161412 0.0
1.205149 0.183839 0.0
1.189472 0.195526 0.0
1.167621 0.197878 0.0
1.141269 0.192474 0.0
1.111791 0.180977 0.0
1.080269 0.165095 0.0
1.047498 0.146558 0.0
1.013987 0.127091 0.0
0.979991 0.108280 0.0
0.945651 0.091228 0.0
0.911321 0.076064 0.0
0.877948 0.061660 0.0
0.847231 0.045943 0.0
0.821333 0.026831 0.0
0.802188 0.003190 0.0
0.790803 -0.024779 0.0
0.787204 -0.055675 0.0
0.790814 -0.087221 0.0
0.800752 -0.117036 0.0
0.816063 -0.143055 0.0
0.835855 -0.163600 0.0
0.859336 -0.177316 0.0
0.885808 -0.183124 0.0
0.914636 -0.180239 0.0
0.945212 -0.168285 0.0
0.976916 -0.147459 0.0
1.009071 -0.118718 0.0
1.040890 -0.083914 0.0
1.071416 -0.045802 0.0
1.099302 -0.008066 0.0
1.122900 0.024868 0.0
1.141346 0.050430 0.0
1.154614 0.067500 0.0
1.162827 0.075649 0.0
1.166355 0.075216 0.0
1.165890 0.067326 0.0
1.162520 0.050847 0.0
1.000789 -0.014588 0.0
1.004008 -0.043973 0.0
1.010842 -0.074863 0.0
1.022316 -0.108530 0.0
1.040309 -0.146063 0.0
1.067857 -0.187965 0.0
1.109381 -0.233290 0.0
1.169652 -0.276531 0.0
1.256977 -0.317355 0.0
1.346314 -0.286644 0.0
1.404246 -0.230114 0.0
1.434493 -0.173573 0.0
1.447175 -0.123030 0.0
1.448414 -0.079248 0.0
1.441327 -0.042859 0.0
1.427976 -0.014624 0.0
1.409626 0.005534 0.0
1.387462 0.016881 0.0
1.363224 0.018989 0.0
1.338659 0.011659 0.0
1.315426 -0.005258 0.0
1.296721 -0.032350 0.0
1.288324 -0.066553 0.0
1.295195 -0.097782 0.0
1.318493 -0.114533 0.0
1.355470 -0.107763 0.0
1.398921 -0.073271 0.0
1.436603 -0.015712 0.0
1.457605 0.048314 0.0
1.460146 0.107179 0.0
1.447944 0.157354 0.0
1.424620 0.197670 0.0
1.393117 0.228285 0.0
1.355685 0.249884 0.0
1.314067 0.263284 0.0
1.269677 0.269267 0.0
1.223719 0.268523 0.0
1.177251 0.261630 0.0
1.131229 0.249056 0.0
1.086528 0.231168 0.0
1.043928 0.208275 0.0
1.003999 0.180805 0.0
0.966724 0.149690 0.0
0.930917 0.116801 0.0
0.893949 0.084703 0.0
0.852928 0.054925 0.0
0.807639 0.025494 0.0
0.762850 -0.009195 0.0
0.727312 -0.053920 0.0
0.708195 -0.107289 0.0
0.706526 -0.162709 0.0
0.719138 -0.212961 0.0
0.742511 -0.252291 0.0
0.774340 -0.276301 0.0
0.813353 -0.281550 0.0
0.858632 -0.265701 0.0
0.909028 -0.228157 0.0
0.962771 -0.170821 0.0
1.017154 -0.098610 0.0
1.067833 -0.019908 0.0
1.108941 0.052484 0.0
1.137358 0.112029 0.0
1.153581 0.157750 0.0
1.158776 0.189893 0.0
1.154436 0.209490 0.0
1.142151 0.218050 0.0
1.123457 0.217349 0.0
1.099735 0.209301 0.0
1.072146 0.195881 0.0
1.041585 0.179104 0.0
1.008663 0.160977 0.0
0.973797 0.143257 0.0
0.937462 0.126927 0.0
0.900573 0.111584 0.0
0.864764 0.095321 0.0
0.832273 0.075489 0.0
0.805391 0.050064 0.0
0.785782 0.018711 0.0
0.774046 -0.017179 0.0
0.769793 -0.055423 0.0
0.772148 -0.093438 0.0
0.780161 -0.128769 0.0
0.792939 -0.159411 0.0
0.809702 -0.183797 0.0
0.829790 -0.200688 0.0
0.852671 -0.209103 0.0
0.877902 -0.208319 0.0
0.905090 -0.197970 0.0
0.933828 -0.178216 0.0
0.963639 -0.149927 0.0
0.993924 -0.114810 0.0
1.023918 -0.075426 0.0
1.052643 -0.035054 0.0
1.078602 0.002298 0.0
1.100333 0.032824 0.0
1.117249 0.054922 0.0
1.129278 0.067986 0.0
1.136560 0.072069 0.0
1.139523 0.067975 0.0
1.138812 0.054279 0.0
1.000411 -0.015789 0.0
1.002099 -0.047680 0.0
1.005830 -0.081721 0.0
1.012626 -0.119941 0.0
1.024592 -0.164611 0.0
1.045707 -0.218080 0.0
1.083134 -0.282126 0.0
1.147688 -0.352520 0.0
1.267509 -0.448511 0.0
1.379739 -0.357056 0.0
1.418244 -0.256140 0.0
1.420297 -0.179846 0.0
1.410497 -0.119640 0.0
1.395589 -0.068968 0.0
1.376515 -0.026979 0.0
1.351964 0.007398 0.0
1.321179 0.032648 0.0
1.285503 0.047605 0.0
1.246287 0.051719 0.0
1.205202 0.044579 0.0
1.164237 0.026021 0.0
1.124003 -0.004689 0.0
1.088094 -0.049907 0.0
1.067021 -0.100226 0.0
1.070510 -0.138875 0.0
1.101109 -0.150998 0.0
1.154054 -0.126432 0.0
1.217788 -0.063968 0.0
1.272758 0.020599 0.0
1.306283 0.098828 0.0
1.320692 0.163499 0.0
1.320753 0.214788 0.0
1.309578 0.253844 0.0
1.289356 0.281980 0.0
1.261804 0.300360 0.0
1.228424 0.309961 0.0
1.190615 0.311597 0.0
1.149693 0.305945 0.0
1.106896 0.293560 0.0
1.063371 0.274890 0.0
1.020104 0.250419 0.0
0.977503 0.221192 0.0
0.934403 0.189678 0.0
0.887284 0.159739 0.0
0.832149 0.133867 0.0
0.769888 0.109043 0.0
0.709789 0.076764 0.0
0.664692 0.029422 0.0
0.641289 -0.033597 0.0
0.637184 -0.104391 0.0
0.646165 -0.172919 0.0
0.663201 -0.232399 0.0
0.685711 -0.278736 0.0
0.712922 -0.308895 0.0
0.745033 -0.320080 0.0
0.782478 -0.309896 0.0
0.825322 -0.277202 0.0
0.872890 -0.223087 0.0
0.923618 -0.151456 0.0
0.974930 -0.069054 0.0
1.021930 0.013522 0.0
1.059684 0.084821 0.0
1.086520 0.141898 0.0
1.102646 0.184424 0.0
1.108816 0.213130 0.0
1.106093 0.229418 0.0
1.095671 0.235096 0.0
1.078744 0.232204 0.0
1.056389 0.222922 0.0
1.029496 0.209517 0.0
0.998769 0.194214 0.0
0.964860 0.178795 0.0
0.928678 0.163906 0.0
0.891705 0.148468 0.0
0.856059 0.129892 0.0
0.824146 0.105322 0.0
0.798022 0.073236 0.0
0.778901 0.034270 0.0
0.767062 -0.009163 0.0
0.762052 -0.054176 0.0
0.763051 -0.098039 0.0
0.769190 -0.138319 0.0
0.779637 -0.173088 0.0
0.793647 -0.200892 0.0
0.810600 -0.220634 0.0
0.830031 -0.231469 0.0
0.851624 -0.232777 0.0
0.875151 -0.224228 0.0
0.900400 -0.205945 0.0
0.927082 -0.178691 0.0
0.954769 -0.144017 0.0
0.982848 -0.104291 0.0
1.010497 -0.062564 0.0
1.036664 -0.022318 0.0
1.059841 0.012532 0.0
1.078848 0.039291 0.0
1.093336 0.057100 0.0
1.103246 0.065762 0.0
1.108765 0.065799 0.0
1.110201 0.055729 0.0
0.999897 -0.016097 0.0
0.999480 -0.048642 0.0
0.998787 -0.083796 0.0
0.998408 -0.124283 0.0
0.999870 -0.173699 0.0
1.006804 -0.237042 0.0
1.027672 -0.321458 0.0
1.080941 -0.431011 0.0
1.231863 -0.640761 0.0
1.340874 -0.386046 0.0
1.304897 -0.229678 0.0
1.248445 -0.151909 0.0
1.206990 -0.096323 0.0
1.176768 -0.047154 0.0
1.147315 -0.000267 0.0
1.111434 0.041118 0.0
1.068411 0.072737 0.0
1.018239 0.093364 0.0
0.960384 0.103032 0.0
0.893920 0.100815 0.0
0.820406 0.084265 0.0
0.747410 0.050296 0.0
0.685251 -0.006824 0.0
0.649401 -0.086386 0.0
0.654775 -0.161578 0.0
0.699832 -0.203951 0.0
0.772632 -0.199223 0.0
0.862569 -0.144848 0.0
0.958615 -0.049538 0.0
1.040237 0.053817 0.0
1.096788 0.137549 0.0
1.133940 0.203525 0.0
1.155473 0.254750 0.0
1.163507 0.293262 0.0
1.159701 0.320435 0.0
1.145671 0.337295 0.0
1.123056 0.344687 0.0
1.093478 0.343355 0.0
1.058466 0.333960 0.0
1.019320 0.317161 0.0
0.976682 0.294053 0.0
0.929652 0.267190 0.0
0.875319 0.241113 0.0
0.811088 0.219654 0.0
0.740031 0.200144 0.0
0.673425 0.171633 0.0
0.624765 0.122932 0.0
0.600396 0.052719 0.0
0.596941 -0.030036 0.0
0.606355 -0.113261 0.0
0.621984 -0.188659 0.0
0.640403 -0.252114 0.0
0.660328 -0.301456 0.0
0.681839 -0.334898 0.0
0.705955 -0.350305 0.0
0.734116 -0.345277 0.0
0.767507 -0.318055 0.0
0.806477 -0.268772 0.0
0.850307 -0.200329 0.0
0.897245 -0.118432 0.0
0.944363 -0.031219 0.0
0.986709 0.049463 0.0
1.020439 0.116690 0.0
1.044681 0.169263 0.0
1.059407 0.207394 0.0
1.065088 0.232197 0.0
1.062473 0.245353 0.0
1.052439 0.248909 0.0
1.035862 0.245150 0.0
1.013545 0.236498 0.0
0.986249 0.225256 0.0
0.954870 0.213040 0.0
0.920713 0.199998 0.0
0.885669 0.184393 0.0
0.852065 0.163217 0.0
0.822181 0.133795 0.0
0.797710 0.095358 0.0
0.779516 0.049464 0.0
0.767757 -0.000761 0.0
0.762109 -0.051920 0.0
0.761957 -0.101142 0.0
0.766562 -0.145959 0.0
0.775131 -0.184464 0.0
0.786891 -0.215287 0.0
0.801183 -0.237484 0.0
0.817534 -0.250401 0.0
0.835680 -0.253583 0.0
0.855520 -0.246790 0.0
0.877016 -0.230128 0.0
0.900076 -0.204249 0.0
0.924455 -0.170524 0.0
0.949701 -0.131108 0.0
0.975139 -0.088834 0.0
0.999887 -0.046962 0.0
1.022801 -0.008914 0.0
1.042551 0.021979 0.0
1.058299 0.044176 0.0
1.069808 0.057267 0.0
1.077065 0.061517 0.0
1.080125 0.055516 0.0
0.999303 -0.015298 0.0
0.996428 -0.046150 0.0
0.990439 -0.079606 0.0
0.980999 -0.118655 0.0
0.967872 -0.167663 0.0
0.951596 -0.233736 0.0
0.935800 -0.329837 0.0
0.935802 -0.475904 0.0
1.038810 -0.849797 0.0
1.049058 -0.191004 0.0
0.875075 -0.098870 0.0
0.746396 -0.086962 0.0
0.687519 -0.060938 0.0
0.654841 -0.019640 0.0
0.619817 0.036695 0.0
0.571086 0.088768 0.0
0.508219 0.130977 0.0
0.433015 0.160500 0.0
0.348866 0.177900 0.0
0.262714 0.178564 0.0
0.188771 0.153973 0.0
0.145123 0.097230 0.0
0.145500 0.008024 0.0
0.185761 -0.105645 0.0
0.249790 -0.211724 0.0
0.328364 -0.277436 0.0
0.418270 -0.288443 0.0
0.518780 -0.246075 0.0
0.629772 -0.155350 0.0
0.743787 -0.036007 0.0
0.841178 0.073431 0.0
0.913661 0.158009 0.0
0.967337 0.225058 0.0
1.004392 0.277865 0.0
1.026125 0.317905 0.0
1.033903 0.346077 0.0
1.029278 0.363145 0.0
1.013872 0.369881 0.0
0.989184 0.367133 0.0
0.956210 0.356107 0.0
0.914778 0.339177 0.0
0.863224 0.320650 0.0
0.800269 0.304940 0.0
0.729559 0.290769 0.0
0.662264 0.267381 0.0
0.612069 0.221197 0.0
0.585985 0.148112 0.0
0.581291 0.056601 0.0
0.590465 -0.039637 0.0
0.606617 -0.129226 0.0
0.625280 -0.206986 0.0
0.643961 -0.270888 0.0
0.661499 -0.320145 0.0
0.677919 -0.354139 0.0
0.694399 -0.371660 0.0
0.712992 -0.370676 0.0
0.735926 -0.348981 0.0
0.764727 -0.305617 0.0
0.799641 -0.242228 0.0
0.839616 -0.163446 0.0
0.882554 -0.076260 0.0
0.924653 0.010060 0.0
0.961544 0.085473 0.0
0.990800 0.146981 0.0
1.011653 0.194097 0.0
1.023969 0.227497 0.0
1.028020 0.248616 0.0
1.024308 0.259392 0.0
1.013443 0.262109 0.0
0.996091 0.259209 0.0
0.973035 0.252898 0.0
0.945363 0.244450 0.0
0.914655 0.233452 0.0
0.882994 0.217644 0.0
0.852662 0.193903 0.0
0.825653 0.160003 0.0
0.803317 0.115957 0.0
0.786328 0.064047 0.0
0.774892 0.007851 0.0
0.768898 -0.048890 0.0
0.767965 -0.103088 0.0
0.771479 -0.152133 0.0
0.778671 -0.194050 0.0
0.788717 -0.227507 0.0
0.800876 -0.251714 0.0
0.814603 -0.266249 0.0
0.829623 -0.270899 0.0
0.845904 -0.265594 0.0
0.863561 -0.250478 0.0
0.882705 -0.226103 0.0
0.903299 -0.193644 0.0
0.925078 -0.155013 0.0
0.947519 -0.112809 0.0
0.969877 -0.070093 0.0
0.991233 -0.030053 0.0
1.010414 0.004186 0.0
1.026363 0.030273 0.0
1.038554 0.047471 0.0
1.046806 0.055804 0.0
1.050989 0.053986 0.0
0.998735 -0.013336 0.0
0.993511 -0.040013 0.0
0.982401 -0.068644 0.0
0.963956 -0.101732 0.0
0.935498 -0.143000 0.0
0.892105 -0.198730 0.0
0.824051 -0.280992 0.0
0.713407 -0.414107 0.0
0.322294 -0.728755 0.0
-0.481144 0.254385 0.0
-0.481144 0.000000 0.0
-0.033121 -0.023264 0.0
-0.057562 -0.051173 0.0
-0.013474 -0.040815 0.0
0.059090 0.020329 0.0
0.099098 0.113857 0.0
0.083983 0.183870 0.0
0.037213 0.229581 0.0
-0.021626 0.251806 0.0
-0.075108 0.244292 0.0
-0.110163 0.197243 0.0
-0.119418 0.106863 0.0
-0.101033 -0.020371 0.0
-0.059687 -0.158856 0.0
-0.002408 -0.279821 0.0
0.068129 -0.358450 0.0
0.150704 -0.379910 0.0
0.245605 -0.350018 0.0
0.354160 -0.270954 0.0
0.474546 -0.154803 0.0
0.596243 -0.026861 0.0
0.699987 0.082073 0.0
0.779591 0.167714 0.0
0.840343 0.237402 0.0
0.883785 0.293193 0.0
0.910983 0.335814 0.0
0.923148 0.365867 0.0
0.921570 0.384143 0.0
0.907302 0.391828 0.0
0.880674 0.391014 0.0
0.841028 0.385349 0.0
0.787957 0.379103 0.0
0.724818 0.372581 0.0
0.661591 0.357066 0.0
0.611802 0.318168 0.0
0.584225 0.248181 0.0
0.578284 0.153152 0.0
0.587606 0.046933 0.0
0.605347 -0.056885 0.0
0.626489 -0.149271 0.0
0.647842 -0.226957 0.0
0.667311 -0.289066 0.0
0.683626 -0.335820 0.0
0.696482 -0.367739 0.0
0.706773 -0.384832 0.0
0.716653 -0.385976 0.0
0.729071 -0.369033 0.0
0.746781 -0.332075 0.0
0.771287 -0.275190 0.0
0.802393 -0.201565 0.0
0.838463 -0.117149 0.0
0.876835 -0.029523 0.0
0.913442 0.051557 0.0
0.944762 0.120320 0.0
0.969273 0.175394 0.0
0.986263 0.216893 0.0
0.995531 0.245900 0.0
0.997198 0.264153 0.0
0.991587 0.273824 0.0
0.979207 0.277227 0.0
0.960834 0.276308 0.0
0.937665 0.271880 0.0
0.911405 0.262990 0.0
0.884121 0.247051 0.0
0.857869 0.221079 0.0
0.834293 0.183411 0.0
0.814463 0.134716 0.0
0.798988 0.077751 0.0
0.788205 0.016367 0.0
0.782234 -0.045440 0.0
0.780899 -0.104270 0.0
0.783701 -0.157267 0.0
0.789897 -0.202304 0.0
0.798629 -0.238032 0.0
0.809069 -0.263789 0.0
0.820574 -0.279407 0.0
0.832796 -0.284983 0.0
0.845712 -0.280708 0.0
0.859544 -0.266853 0.0
0.874593 -0.243920 0.0
0.891056 -0.212884 0.0
0.908888 -0.175384 0.0
0.927754 -0.133746 0.0
0.947049 -0.090809 0.0
0.965967 -0.049611 0.0
0.983567 -0.013037 0.0
0.998796 0.016317 0.0
1.010875 0.037157 0.0
1.019475 0.049267 0.0
1.024333 0.051483 0.0
0.998319 -0.010390 0.0
0.991390 -0.030805 0.0
0.976631 -0.051982 0.0
0.951932 -0.075250 0.0
0.913230 -0.102322 0.0
0.852652 -0.135438 0.0
0.753623 -0.177201 0.0
0.576706 -0.230338 0.0
0.230878 -0.275527 0.0
0.000000 0.254385 0.0
-0.000000 -0.000000 0.0
0.000000 0.000000 0.0
-0.028558 -0.029926 0.0
-0.070358 -0.062982 0.0
-0.090239 -0.010187 0.0
-0.100948 0.115075 0.0
-0.118440 0.215259 0.0
-0.150953 0.277476 0.0
-0.189155 0.300952 0.0
-0.221521 0.280995 0.0
-0.237650 0.211723 0.0
-0.230628 0.094616 0.0
-0.200473 -0.056664 0.0
-0.157070 -0.207312 0.0
-0.110470 -0.335244 0.0
-0.060495 -0.423539 0.0
0.000121 -0.458012 0.0
0.076132 -0.442826 0.0
0.168896 -0.379466 0.0
0.277900 -0.275680 0.0
0.397815 -0.147596 0.0
0.515463 -0.018585 0.0
0.614539 0.089691 0.0
0.691509 0.177703 0.0
0.750339 0.250619 0.0
0.792095 0.309435 0.0
0.817526 0.354649 0.0
0.827317 0.387147 0.0
0.821816 0.408593 0.0
0.800850 0.421843 0.0
0.764489 0.430527 0.0
0.715514 0.435971 0.0
0.662140 0.432226 0.0
0.616851 0.405938 0.0
0.589845 0.346091 0.0
0.583303 0.254377 0.0
0.592727 0.143474 0.0
0.612115 0.027902 0.0
0.636330 -0.079810 0.0
0.661558 -0.172715 0.0
0.685305 -0.248613 0.0
0.705728 -0.307303 0.0
0.721550 -0.349721 0.0
0.732191 -0.377334 0.0
0.738067 -0.391405 0.0
0.740922 -0.392138 0.0
0.743809 -0.378175 0.0
0.750355 -0.347189 0.0
0.763466 -0.297695 0.0
0.784250 -0.230951 0.0
0.811854 -0.151439 0.0
0.844064 -0.065815 0.0
0.877452 0.017855 0.0
0.908332 0.091823 0.0
0.934295 0.153418 0.0
0.954102 0.202073 0.0
0.967117 0.238437 0.0
0.973099 0.263967 0.0
0.972106 0.280614 0.0
0.964491 0.290433 0.0
0.950994 0.294973 0.0
0.932841 0.294538 0.0
0.911709 0.287724 0.0
0.889491 0.271819 0.0
0.867910 0.244144 0.0
0.848253 0.203580 0.0
0.831364 0.151265 0.0
0.817833 0.090207 0.0
0.808133 0.024396 0.0
0.802577 -0.041942 0.0
0.801155 -0.105011 0.0
0.803471 -0.161643 0.0
0.808842 -0.209496 0.0
0.816415 -0.247145 0.0
0.825316 -0.274016 0.0
0.834812 -0.290180 0.0
0.844458 -0.296077 0.0
0.854176 -0.292248 0.0
0.864229 -0.279199 0.0
0.875073 -0.257468 0.0
0.887138 -0.227865 0.0
0.900636 -0.191734 0.0
0.915456 -0.151081 0.0
0.931163 -0.108475 0.0
0.947074 -0.066774 0.0
0.962364 -0.028764 0.0
0.976095 0.003083 0.0
0.987422 0.026985 0.0
0.995841 0.042420 0.0
1.000994 0.048318 0.0
0.998136 -0.006845 0.0
0.990496 -0.019781 0.0
0.974354 -0.032106 0.0
0.947724 -0.043797 0.0
0.907054 -0.054403 0.0
0.846499 -0.062223 0.0
0.757140 -0.062028 0.0
0.627860 -0.039314 0.0
0.464647 0.047812 0.0
0.188754 0.169812 0.0
0.000000 0.000000 0.0
-0.000000 -0.000000 0.0
0.000000 0.000000 0.0
-0.023950 -0.024870 0.0
-0.068833 0.017384 0.0
-0.110814 0.140194 0.0
-0.148045 0.244862 0.0
-0.178368 0.310710 0.0
-0.204001 0.331553 0.0
-0.220579 0.299338 0.0
-0.219602 0.208532 0.0
-0.193015 0.064199 0.0
-0.147634 -0.101783 0.0
-0.100946 -0.252284 0.0
-0.062571 -0.375247 0.0
-0.033548 -0.462534 0.0
-0.006051 -0.507130 0.0
0.031896 -0.507665 0.0
0.088949 -0.464446 0.0
0.168650 -0.379405 0.0
0.267558 -0.262694 0.0
0.376601 -0.130177 0.0
0.481036 -0.002227 0.0
0.568029 0.105657 0.0
0.635923 0.195940 0.0
0.686843 0.271438 0.0
0.721198 0.332860 0.0
0.739040 0.381303 0.0
0.740215 0.418764 0.0
0.724898 0.447956 0.0
0.695215 0.470457 0.0
0.657449 0.482782 0.0
0.622134 0.474102 0.0
0.599717 0.431768 0.0
0.594801 0.352183 0.0
0.605261 0.244366 0.0
0.626283 0.123039 0.0
0.653454 0.001779 0.0
0.682795 -0.107242 0.0
0.711101 -0.198817 0.0
0.736295 -0.271452 0.0
0.756871 -0.325463 0.0
0.771792 -0.362303 0.0
0.780498 -0.384098 0.0
0.783079 -0.393099 0.0
0.780653 -0.390874 0.0
0.775734 -0.377407 0.0
0.772079 -0.350849 0.0
0.773647 -0.308715 0.0
0.783082 -0.250149 0.0
0.800787 -0.177551 0.0
0.825165 -0.096291 0.0
0.853361 -0.013253 0.0
0.881771 0.063639 0.0
0.907366 0.130043 0.0
0.928406 0.184600 0.0
0.943856 0.227445 0.0
0.953158 0.259675 0.0
0.956137 0.282922 0.0