# vtk DataFile Version 3.0
Vector Field
ASCII
DATASET RECTILINEAR_GRID
DIMENSIONS 100 26 1
X_COORDINATES 100 double
0.050000 0.150000 0.250000 0.350000 0.450000 0.550000 0.650000 0.750000 0.850000 0.950000 1.050000 1.150000 1.250000 1.350000 1.450000 1.550000 1.650000 1.750000 1.850000 1.950000 2.050000 2.150000 2.250000 2.350000 2.450000 2.550000 2.650000 2.750000 2.850000 2.950000 3.050000 3.150000 3.250000 3.350000 3.450000 3.550000 3.650000 3.750000 3.850000 3.950000 4.050000 4.150000 4.250000 4.350000 4.450000 4.550000 4.650000 4.750000 4.850000 4.950000 5.050000 5.150000 5.250000 5.350000 5.450000 5.550000 5.650000 5.750000 5.850000 5.950000 6.050000 6.150000 6.250000 6.350000 6.450000 6.550000 6.650000 6.750000 6.850000 6.950000 7.050000 7.150000 7.250000 7.350000 7.450000 7.550000 7.650000 7.750000 7.850000 7.950000 8.050000 8.150000 8.250000 8.350000 8.450000 8.550000 8.650000 8.750000 8.850000 8.950000 9.050000 9.150000 9.250000 9.350000 9.450000 9.550000 9.650000 9.750000 9.850000 9.950000 
Y_COORDINATES 26 double
0.050000 0.150000 0.250000 0.350000 0.450000 0.550000 0.650000 0.750000 0.850000 0.950000 1.050000 1.150000 1.250000 1.350000 1.450000 1.550000 1.650000 1.750000 1.850000 1.950000 2.050000 2.150000 2.250000 2.350000 2.450000 2.550000 
Z_COORDINATES 1 double
0.0
POINT_DATA 2600
VECTORS Vektorfeld double
1.000885 -0.000885 0.0
1.004871 -0.003101 0.0
1.013423 -0.005452 0.0
1.026686 -0.007811 0.0
1.044575 -0.010077 0.0
1.066771 -0.012119 0.0
1.092659 -0.013768 0.0
1.121257 -0.014830 0.0
1.151211 -0.015125 0.0
1.180891 -0.014554 0.0
1.208605 -0.013160 0.0
1.232884 -0.011119 0.0
1.252680 -0.008677 0.0
1.267445 -0.006088 0.0
1.277111 -0.003579 0.0
1.282023 -0.001333 0.0
1.282854 0.000503 0.0
1.280519 0.001831 0.0
1.276101 0.002587 0.0
1.270779 0.002736 0.0
1.265762 0.002281 0.0
1.262216 0.001265 0.0
1.261160 -0.000210 0.0
1.263319 -0.001949 0.0
1.268958 -0.003690 0.0
1.277757 -0.005108 0.0
1.288729 -0.005864 0.0
1.300280 -0.005687 0.0
1.310437 -0.004471 0.0
1.317235 -0.002326 0.0
1.319076 0.000485 0.0
1.314888 0.003703 0.0
1.304160 0.007024 0.0
1.286947 0.010189 0.0
1.263758 0.013000 0.0
1.235430 0.015328 0.0
1.203000 0.017102 0.0
1.167608 0.018290 0.0
1.130432 0.018887 0.0
1.092640 0.018904 0.0
1.055376 0.018360 0.0
1.019742 0.017274 0.0
0.986807 0.015661 0.0
0.957611 0.013534 0.0
0.933190 0.010887 0.0
0.914609 0.007694 0.0
0.902974 0.003941 0.0
0.899274 -0.000242 0.0
0.903977 -0.004460 0.0
0.916922 -0.008485 0.0
0.937551 -0.012144 0.0
0.964926 -0.015231 0.0
0.997655 -0.017499 0.0
1.033848 -0.018694 0.0
1.071137 -0.018595 0.0
1.106792 -0.017061 0.0
1.137964 -0.014111 0.0
1.162073 -0.009999 0.0
1.177315 -0.005243 0.0
1.183035 -0.000477 0.0
1.179522 0.003990 0.0
1.167527 0.008005 0.0
1.148098 0.011424 0.0
1.122517 0.014157 0.0
1.092186 0.016173 0.0
1.058530 0.017483 0.0
1.022914 0.018133 0.0
0.986600 0.018181 0.0
0.950731 0.017689 0.0
0.916324 0.016718 0.0
0.884275 0.015331 0.0
0.855339 0.013604 0.0
0.830100 0.011635 0.0
0.808924 0.009541 0.0
0.791932 0.007450 0.0
0.779002 0.005479 0.0
0.769804 0.003719 0.0
0.763864 0.002222 0.0
0.760632 0.001010 0.0
0.759524 0.000098 0.0
0.759913 -0.000486 0.0
0.761198 -0.000799 0.0
0.762935 -0.000938 0.0
0.764859 -0.000986 0.0
0.766842 -0.000996 0.0
0.768840 -0.001003 0.0
0.770866 -0.001023 0.0
0.772953 -0.001064 0.0
0.775137 -0.001121 0.0
0.777445 -0.001187 0.0
0.779883 -0.001251 0.0
0.782436 -0.001301 0.0
0.785065 -0.001328 0.0
0.787715 -0.001322 0.0
0.790318 -0.001281 0.0
0.792808 -0.001209 0.0
0.795130 -0.001114 0.0
0.797265 -0.001021 0.0
0.799256 -0.000970 0.0
0.801489 -0.001262 0.0
1.001437 -0.003207 0.0
1.006839 -0.010166 0.0
1.017231 -0.017330 0.0
1.032519 -0.024484 0.0
1.052600 -0.031374 0.0
1.077207 -0.037626 0.0
1.105783 -0.042724 0.0
1.137360 -0.046049 0.0
1.170507 -0.047007 0.0
1.203395 -0.045239 0.0
1.234087 -0.040882 0.0
1.260939 -0.034528 0.0
1.282851 -0.026975 0.0
1.299317 -0.019020 0.0
1.310353 -0.011349 0.0
1.316387 -0.004509 0.0
1.318146 0.001089 0.0
1.316590 0.005136 0.0
1.312854 0.007436 0.0
1.308177 0.007886 0.0
1.303831 0.006492 0.0
1.301042 0.003389 0.0
1.300883 -0.001119 0.0
1.304194 -0.006509 0.0
1.311430 -0.012005 0.0
1.322437 -0.016598 0.0
1.336285 -0.019195 0.0
1.351283 -0.018904 0.0
1.365207 -0.015336 0.0
1.375719 -0.008771 0.0
1.380819 -0.000011 0.0
1.379235 0.009971 0.0
1.370518 0.020202 0.0
1.354860 0.029882 0.0
1.332925 0.038429 0.0
1.305683 0.045469 0.0
1.274274 0.050801 0.0
1.239908 0.054348 0.0
1.203804 0.056108 0.0
1.167155 0.056124 0.0
1.131107 0.054453 0.0
1.096762 0.051159 0.0
1.065171 0.046302 0.0
1.037323 0.039937 0.0
1.014108 0.032119 0.0
0.996239 0.022912 0.0
0.984153 0.012444 0.0
0.978085 0.001024 0.0
0.978434 -0.010777 0.0
0.985800 -0.022481 0.0
1.000543 -0.033520 0.0
1.022484 -0.043170 0.0
1.050828 -0.050633 0.0
1.084214 -0.055139 0.0
1.120781 -0.056007 0.0
1.158215 -0.052739 0.0
1.193818 -0.045206 0.0
1.224696 -0.033891 0.0
1.248126 -0.020023 0.0
1.262064 -0.005355 0.0
1.265837 0.008609 0.0
1.260120 0.021099 0.0
1.246191 0.031689 0.0
1.225525 0.040140 0.0
1.199663 0.046383 0.0
1.170109 0.050483 0.0
1.138272 0.052586 0.0
1.105434 0.052879 0.0
1.072738 0.051556 0.0
1.041186 0.048810 0.0
1.011633 0.044842 0.0
0.984771 0.039891 0.0
0.961112 0.034247 0.0
0.940963 0.028254 0.0
0.924409 0.022283 0.0
0.911305 0.016680 0.0
0.901299 0.011723 0.0
0.893869 0.007588 0.0
0.888397 0.004348 0.0
0.884276 0.001989 0.0
0.881077 0.000433 0.0
0.878567 -0.000493 0.0
0.876585 -0.001000 0.0
0.875005 -0.001268 0.0
0.873747 -0.001438 0.0
0.872793 -0.001605 0.0
0.872171 -0.001824 0.0
0.871935 -0.002114 0.0
0.872148 -0.002468 0.0
0.872861 -0.002861 0.0
0.874102 -0.003257 0.0
0.875871 -0.003616 0.0
0.878131 -0.003902 0.0
0.880818 -0.004085 0.0
0.883846 -0.004150 0.0
0.887112 -0.004096 0.0
0.890510 -0.003946 0.0
0.893937 -0.003750 0.0
0.897298 -0.003593 0.0
0.900294 -0.003867 0.0
1.001331 -0.005975 0.0
1.006579 -0.018049 0.0
1.016997 -0.030257 0.0
1.032614 -0.042463 0.0
1.053480 -0.054343 0.0
1.079523 -0.065308 0.0
1.110360 -0.074455 0.0
1.145072 -0.080609 0.0
1.182042 -0.082564 0.0
1.218900 -0.079428 0.0
1.253006 -0.071492 0.0
1.282250 -0.060014 0.0
1.305405 -0.046558 0.0
1.322070 -0.032569 0.0
1.332455 -0.019221 0.0
1.337195 -0.007411 0.0
1.337216 0.002211 0.0
1.333641 0.009145 0.0
1.327733 0.013071 0.0
1.320849 0.013813 0.0
1.314402 0.011358 0.0
1.309819 0.005896 0.0
1.308469 -0.002117 0.0
1.311520 -0.011874 0.0
1.319718 -0.022075 0.0
1.333076 -0.030893 0.0
1.350562 -0.036234 0.0
1.370002 -0.036302 0.0
1.388401 -0.030261 0.0
1.402663 -0.018620 0.0
1.410423 -0.003023 0.0
1.410463 0.014526 0.0
1.402535 0.032292 0.0
1.387078 0.048907 0.0
1.364998 0.063419 0.0
1.337462 0.075256 0.0
1.305744 0.084142 0.0
1.271116 0.090002 0.0
1.234793 0.092880 0.0
1.197914 0.092881 0.0
1.161528 0.090129 0.0
1.126602 0.084754 0.0
1.094012 0.076888 0.0
1.064537 0.066674 0.0
1.038858 0.054277 0.0
1.017581 0.039900 0.0
1.001333 0.023790 0.0
0.990848 0.006232 0.0
0.986918 -0.012404 0.0
0.990134 -0.031437 0.0
1.000646 -0.049818 0.0
1.018113 -0.066279 0.0
1.041846 -0.079601 0.0
1.070991 -0.088701 0.0
1.104548 -0.092567 0.0
1.141176 -0.090242 0.0
1.178920 -0.081050 0.0
1.215033 -0.065038 0.0
1.246139 -0.043412 0.0
1.268896 -0.018662 0.0
1.281146 0.005893 0.0
1.282868 0.027809 0.0
1.275485 0.046290 0.0
1.260695 0.060993 0.0
1.240209 0.071878 0.0
1.215631 0.079120 0.0
1.188397 0.083021 0.0
1.159743 0.083936 0.0
1.130708 0.082229 0.0
1.102140 0.078256 0.0
1.074708 0.072382 0.0
1.048915 0.065007 0.0
1.025107 0.056596 0.0
1.003492 0.047669 0.0
0.984146 0.038769 0.0
0.967042 0.030403 0.0
0.952068 0.022981 0.0
0.939059 0.016769 0.0
0.927826 0.011872 0.0
0.918176 0.008234 0.0
0.909908 0.005655 0.0
0.902816 0.003887 0.0
0.896734 0.002684 0.0
0.891546 0.001817 0.0
0.887186 0.001095 0.0
0.883622 0.000379 0.0
0.880850 -0.000414 0.0
0.878882 -0.001319 0.0
0.877733 -0.002326 0.0
0.877410 -0.003394 0.0
0.877901 -0.004457 0.0
0.879159 -0.005443 0.0
0.881108 -0.006283 0.0
0.883638 -0.006922 0.0
0.886620 -0.007323 0.0
0.889909 -0.007478 0.0
0.893354 -0.007408 0.0
0.896807 -0.007168 0.0
0.900112 -0.006841 0.0
0.903069 -0.006572 0.0
1.001289 -0.008595 0.0
1.006450 -0.025838 0.0
1.016864 -0.043299 0.0
1.032782 -0.060955 0.0
1.054555 -0.078490 0.0
1.082493 -0.095142 0.0
1.116606 -0.109570 0.0
1.156196 -0.119796 0.0
1.199479 -0.123629 0.0
1.243020 -0.118762 0.0
1.282655 -0.105899 0.0
1.315455 -0.087650 0.0
1.340166 -0.066789 0.0
1.356720 -0.045558 0.0
1.365728 -0.025624 0.0
1.368175 -0.008195 0.0
1.365278 0.005872 0.0
1.358364 0.015972 0.0
1.348854 0.021661 0.0
1.338284 0.022678 0.0
1.328268 0.018957 0.0
1.320478 0.010670 0.0
1.316627 -0.001690 0.0
1.318368 -0.017092 0.0
1.327003 -0.033690 0.0
1.342987 -0.048621 0.0
1.365336 -0.058341 0.0
1.391330 -0.059629 0.0
1.416836 -0.050838 0.0
1.437295 -0.032764 0.0
1.449165 -0.008509 0.0
1.450918 0.018220 0.0
1.442705 0.044740 0.0
1.425538 0.069083 0.0
1.400888 0.089974 0.0
1.370386 0.106739 0.0
1.335629 0.119134 0.0
1.298079 0.127188 0.0
1.259028 0.131068 0.0
1.219603 0.130998 0.0
1.180787 0.127213 0.0
1.143441 0.119942 0.0
1.108325 0.109407 0.0
1.076121 0.095835 0.0
1.047463 0.079454 0.0
1.022990 0.060473 0.0
1.003374 0.039081 0.0
0.989271 0.015528 0.0
0.981139 -0.009638 0.0
0.979047 -0.035328 0.0
0.982665 -0.060057 0.0
0.991504 -0.082346 0.0
1.005301 -0.101064 0.0
1.024234 -0.115316 0.0
1.048748 -0.124022 0.0
1.079055 -0.125722 0.0
1.114589 -0.118846 0.0
1.153597 -0.102363 0.0
1.192966 -0.076563 0.0
1.228372 -0.043674 0.0
1.255025 -0.007998 0.0
1.269921 0.025082 0.0
1.273392 0.052930 0.0
1.267456 0.075080 0.0
1.254176 0.091558 0.0
1.235482 0.102713 0.0
1.213070 0.109074 0.0
1.188365 0.111242 0.0
1.162506 0.109817 0.0
1.136366 0.105376 0.0
1.110583 0.098477 0.0
1.085601 0.089688 0.0
1.061716 0.079607 0.0
1.039128 0.068861 0.0
1.017975 0.058075 0.0
0.998359 0.047817 0.0
0.980357 0.038543 0.0
0.964016 0.030556 0.0
0.949349 0.023985 0.0
0.936322 0.018798 0.0
0.924855 0.014827 0.0
0.914836 0.011826 0.0
0.906142 0.009521 0.0
0.898666 0.007642 0.0
0.892334 0.005962 0.0
0.887104 0.004306 0.0
0.882969 0.002567 0.0
0.879931 0.000705 0.0
0.877996 -0.001266 0.0
0.877147 -0.003283 0.0
0.877339 -0.005251 0.0
0.878493 -0.007062 0.0
0.880492 -0.008612 0.0
0.883185 -0.009816 0.0
0.886397 -0.010621 0.0
0.889939 -0.011009 0.0
0.893619 -0.011003 0.0
0.897252 -0.010659 0.0
0.900664 -0.010067 0.0
0.903696 -0.009336 0.0
1.001228 -0.011112 0.0
1.006184 -0.033438 0.0
1.016331 -0.056260 0.0
1.032196 -0.079778 0.0
1.054581 -0.103826 0.0
1.084441 -0.127604 0.0
1.122574 -0.149354 0.0
1.168922 -0.165950 0.0
1.222009 -0.173846 0.0
1.276187 -0.166264 0.0
1.323789 -0.145635 0.0
1.360795 -0.117720 0.0
1.386563 -0.087197 0.0
1.401961 -0.057102 0.0
1.408315 -0.029442 0.0
1.407108 -0.005617 0.0
1.399836 0.013464 0.0
1.387997 0.027132 0.0
1.373182 0.034825 0.0
1.357095 0.036172 0.0
1.341541 0.031032 0.0
1.328396 0.019530 0.0
1.319615 0.002081 0.0
1.317365 -0.020354 0.0
1.323801 -0.045500 0.0
1.340259 -0.069253 0.0
1.366267 -0.086065 0.0
1.398999 -0.090631 0.0
1.433466 -0.079808 0.0
1.463366 -0.054154 0.0
1.482841 -0.018463 0.0
1.488927 0.020335 0.0
1.481949 0.057815 0.0
1.463777 0.091348 0.0
1.436695 0.119442 0.0
1.402980 0.141489 0.0
1.364669 0.157452 0.0
1.323488 0.167601 0.0
1.280863 0.172331 0.0
1.237969 0.172054 0.0
1.195785 0.167158 0.0
1.155139 0.157988 0.0
1.116759 0.144856 0.0
1.081306 0.128043 0.0
1.049404 0.107805 0.0
1.021628 0.084372 0.0
0.998403 0.058023 0.0
0.979810 0.029282 0.0
0.965424 -0.000873 0.0
0.954458 -0.031035 0.0
0.946188 -0.059698 0.0
0.940498 -0.085853 0.0
0.938316 -0.109172 0.0
0.941563 -0.129389 0.0
0.952414 -0.145315 0.0
0.972338 -0.154661 0.0
1.001559 -0.154662 0.0
1.038983 -0.142979 0.0
1.082256 -0.118590 0.0
1.127755 -0.082551 0.0
1.170531 -0.038550 0.0
1.204479 0.006790 0.0
1.225915 0.046314 0.0
1.235507 0.078040 0.0
1.235355 0.102029 0.0
1.227507 0.118784 0.0
1.213852 0.129070 0.0
1.196043 0.133761 0.0
1.175461 0.133739 0.0
1.153205 0.129849 0.0
1.130109 0.122882 0.0
1.106782 0.113593 0.0
1.083659 0.102710 0.0
1.061064 0.090942 0.0
1.039253 0.078958 0.0
1.018450 0.067353 0.0
0.998852 0.056607 0.0
0.980625 0.047059 0.0
0.963890 0.038885 0.0
0.948707 0.032108 0.0
0.935078 0.026611 0.0
0.922961 0.022178 0.0
0.912290 0.018534 0.0
0.903003 0.015392 0.0
0.895059 0.012489 0.0
0.888444 0.009622 0.0
0.883166 0.006664 0.0
0.879243 0.003569 0.0
0.876681 0.000368 0.0
0.875462 -0.002847 0.0
0.875525 -0.005941 0.0
0.876762 -0.008763 0.0
0.879016 -0.011164 0.0
0.882088 -0.013028 0.0
0.885747 -0.014280 0.0
0.889753 -0.014898 0.0
0.893867 -0.014908 0.0
0.897864 -0.014384 0.0
0.901545 -0.013435 0.0
0.904744 -0.012199 0.0
1.001099 -0.013439 0.0
1.005563 -0.040532 0.0
1.014851 -0.068600 0.0
1.029796 -0.098247 0.0
1.051768 -0.129714 0.0
1.082680 -0.162487 0.0
1.124766 -0.194690 0.0
1.179528 -0.221724 0.0
1.247764 -0.239395 0.0
1.318400 -0.225529 0.0
1.375363 -0.190935 0.0
1.414728 -0.148789 0.0
1.438793 -0.105960 0.0
1.450521 -0.065465 0.0
1.452187 -0.029100 0.0
1.445624 0.001811 0.0
1.432339 0.026594 0.0
1.413770 0.044410 0.0
1.391601 0.054531 0.0
1.367704 0.056450 0.0
1.344062 0.049948 0.0
1.322679 0.035143 0.0
1.305447 0.012480 0.0
1.294450 -0.017506 0.0
1.292609 -0.052943 0.0
1.302748 -0.088407 0.0
1.325679 -0.115849 0.0
1.359643 -0.127543 0.0
1.400496 -0.118216 0.0
1.441608 -0.086759 0.0
1.474343 -0.038069 0.0
1.491387 0.016812 0.0
1.491312 0.068391 0.0
1.476984 0.113271 0.0
1.451674 0.149910 0.0
1.418384 0.178025 0.0
1.379603 0.198007 0.0
1.337311 0.210519 0.0
1.293077 0.216272 0.0
1.248163 0.215921 0.0
1.203610 0.210030 0.0
1.160305 0.199068 0.0
1.119035 0.183426 0.0
1.080522 0.163438 0.0
1.045410 0.139425 0.0
1.014139 0.111800 0.0
0.986678 0.081281 0.0
0.962196 0.049099 0.0
0.938987 0.016904 0.0
0.915081 -0.013941 0.0
0.889817 -0.043259 0.0
0.864964 -0.071750 0.0
0.844320 -0.100449 0.0
0.832272 -0.129312 0.0
0.831932 -0.155903 0.0
0.844219 -0.176283 0.0
0.868374 -0.186416 0.0
0.902827 -0.183101 0.0
0.945620 -0.164535 0.0
0.994337 -0.130822 0.0
1.045737 -0.084456 0.0
1.095198 -0.030713 0.0
1.136109 0.021470 0.0
1.164595 0.064806 0.0
1.181528 0.098481 0.0
1.188692 0.123016 0.0
1.187861 0.139324 0.0
1.180693 0.148483 0.0
1.168675 0.151617 0.0
1.153087 0.149816 0.0
1.134990 0.144108 0.0
1.115237 0.135447 0.0
1.094504 0.124711 0.0
1.073329 0.112710 0.0
1.052159 0.100172 0.0
1.031372 0.087730 0.0
1.011296 0.075905 0.0
0.992201 0.065082 0.0
0.974297 0.055501 0.0
0.957723 0.047250 0.0
0.942552 0.040269 0.0
0.928810 0.034380 0.0
0.916496 0.029318 0.0
0.905611 0.024780 0.0
0.896175 0.020481 0.0
0.888231 0.016189 0.0
0.881841 0.011765 0.0
0.877063 0.007169 0.0
0.873933 0.002459 0.0
0.872442 -0.002228 0.0
0.872522 -0.006704 0.0
0.874036 -0.010751 0.0
0.876773 -0.014167 0.0
0.880467 -0.016792 0.0
0.884822 -0.018531 0.0
0.889530 -0.019361 0.0
0.894295 -0.019323 0.0
0.898843 -0.018514 0.0
0.902940 -0.017083 0.0
0.906385 -0.015195 0.0
1.000858 -0.015396 0.0
1.004371 -0.046552 0.0
1.011830 -0.079328 0.0
1.024306 -0.114940 0.0
1.043728 -0.154416 0.0
1.073200 -0.198168 0.0
1.117235 -0.245129 0.0
1.180680 -0.289493 0.0
1.272366 -0.331548 0.0
1.366174 -0.297819 0.0
1.427272 -0.236707 0.0
1.460011 -0.175121 0.0
1.475206 -0.118888 0.0
1.478951 -0.068010 0.0
1.473771 -0.023041 0.0
1.460562 0.015524 0.0
1.439904 0.046826 0.0
1.413032 0.069620 0.0
1.381617 0.082905 0.0
1.347567 0.086024 0.0
1.312915 0.078668 0.0
1.279777 0.060945 0.0
1.250087 0.033600 0.0
1.224818 -0.002359 0.0
1.205828 -0.047259 0.0
1.197449 -0.095851 0.0
1.203445 -0.137331 0.0
1.225383 -0.161964 0.0
1.262668 -0.161933 0.0
1.311160 -0.132645 0.0
1.361827 -0.075586 0.0
1.401353 -0.002241 0.0
1.421167 0.067704 0.0
1.422551 0.126902 0.0
1.409957 0.174184 0.0
1.387006 0.209992 0.0
1.356463 0.235365 0.0
1.320462 0.251455 0.0
1.280710 0.259322 0.0
1.238631 0.259864 0.0
1.195454 0.253817 0.0
1.152267 0.241772 0.0
1.110062 0.224197 0.0
1.069745 0.201498 0.0
1.032054 0.174169 0.0
0.997265 0.143115 0.0
0.964661 0.110029 0.0
0.932125 0.077368 0.0
0.896599 0.047371 0.0
0.855907 0.020191 0.0
0.811163 -0.007382 0.0
0.768381 -0.039992 0.0
0.735950 -0.079131 0.0
0.718998 -0.121630 0.0
0.717606 -0.161854 0.0
0.729351 -0.194364 0.0
0.751774 -0.214914 0.0
0.783189 -0.220471 0.0
0.822457 -0.209226 0.0
0.868483 -0.180874 0.0
0.919728 -0.137048 0.0
0.973759 -0.081612 0.0
1.026351 -0.021133 0.0
1.070964 0.034310 0.0
1.104054 0.078954 0.0
1.126514 0.112919 0.0
1.139653 0.137113 0.0
1.144832 0.152684 0.0
1.143389 0.160877 0.0
1.136588 0.162945 0.0
1.125573 0.160091 0.0
1.111353 0.153438 0.0
1.094794 0.144012 0.0
1.076640 0.132738 0.0
1.057525 0.120429 0.0
1.037997 0.107788 0.0
1.018520 0.095401 0.0
0.999478 0.083723 0.0
0.981173 0.073070 0.0
0.963824 0.063604 0.0
0.947580 0.055329 0.0
0.932539 0.048103 0.0
0.918782 0.041666 0.0
0.906397 0.035702 0.0
0.895498 0.029894 0.0
0.886227 0.023990 0.0
0.878735 0.017846 0.0
0.873156 0.011444 0.0
0.869578 0.004893 0.0
0.868012 -0.001605 0.0
0.868376 -0.007772 0.0
0.870478 -0.013299 0.0
0.874028 -0.017906 0.0
0.878667 -0.021387 0.0
0.884009 -0.023633 0.0
0.889670 -0.024629 0.0
0.895293 -0.024443 0.0
0.900559 -0.023209 0.0
0.905195 -0.021122 0.0
0.908938 -0.018344 0.0
1.000476 -0.016730 0.0
1.002443 -0.050698 0.0
1.006771 -0.086970 0.0
1.014529 -0.127532 0.0
1.027889 -0.174607 0.0
1.050922 -0.230482 0.0
1.090933 -0.296861 0.0
1.158926 -0.369200 0.0
1.284102 -0.468703 0.0
1.401126 -0.371497 0.0
1.441871 -0.264871 0.0
1.446210 -0.184035 0.0
1.440605 -0.119564 0.0
1.432081 -0.062555 0.0
1.419545 -0.010780 0.0
1.400300 0.035717 0.0
1.373120 0.074470 0.0
1.338542 0.103425 0.0
1.297820 0.121237 0.0
1.252445 0.127118 0.0
1.204035 0.120636 0.0
1.154463 0.101686 0.0
1.105996 0.071015 0.0
1.060371 0.031120 0.0
1.015826 -0.017203 0.0
0.975164 -0.076866 0.0
0.950177 -0.137324 0.0
0.951044 -0.184777 0.0
0.980417 -0.205779 0.0
1.033967 -0.190841 0.0
1.103019 -0.137110 0.0
1.174794 -0.052016 0.0
1.231715 0.040745 0.0
1.265955 0.118237 0.0
1.282006 0.179392 0.0
1.283862 0.225880 0.0
1.274328 0.259553 0.0
1.255574 0.282022 0.0
1.229464 0.294616 0.0
1.197695 0.298418 0.0
1.161829 0.294306 0.0
1.123315 0.282984 0.0
1.083496 0.265008 0.0
1.043595 0.240904 0.0
1.004453 0.211596 0.0
0.965691 0.179241 0.0
0.924565 0.147634 0.0
0.876385 0.120479 0.0
0.818500 0.097672 0.0
0.755457 0.073625 0.0
0.698573 0.040811 0.0
0.657916 -0.004746 0.0
0.636307 -0.060337 0.0
0.630759 -0.117923 0.0
0.636647 -0.170057 0.0
0.650635 -0.211894 0.0
0.671171 -0.240342 0.0
0.697898 -0.253185 0.0
0.730987 -0.248869 0.0
0.770565 -0.226837 0.0
0.816290 -0.188056 0.0
0.867050 -0.135395 0.0
0.920756 -0.073648 0.0
0.973176 -0.010209 0.0
1.018297 0.045261 0.0
1.053245 0.089204 0.0
1.078646 0.122286 0.0
1.095396 0.145583 0.0
1.104497 0.160320 0.0
1.107008 0.167792 0.0
1.103983 0.169283 0.0
1.096430 0.166018 0.0
1.085287 0.159133 0.0
1.071405 0.149653 0.0
1.055546 0.138487 0.0
1.038379 0.126425 0.0
1.020482 0.114139 0.0
1.002335 0.102174 0.0
0.984321 0.090937 0.0
0.966738 0.080670 0.0
0.949810 0.071437 0.0
0.933724 0.063122 0.0
0.918667 0.055461 0.0
0.904855 0.048105 0.0
0.892547 0.040699 0.0
0.882033 0.032970 0.0
0.873604 0.024787 0.0
0.867499 0.016187 0.0
0.863861 0.007367 0.0
0.862703 -0.001355 0.0
0.863881 -0.009564 0.0
0.867090 -0.016819 0.0
0.871905 -0.022751 0.0
0.877845 -0.027121 0.0
0.884430 -0.029825 0.0
0.891213 -0.030880 0.0
0.897796 -0.030398 0.0
0.903834 -0.028558 0.0
0.909029 -0.025604 0.0
0.913057 -0.021633 0.0
0.999953 -0.017160 0.0
0.999775 -0.052057 0.0
0.999596 -0.089759 0.0
1.000051 -0.132956 0.0
1.002731 -0.185223 0.0
1.011366 -0.251534 0.0
1.034582 -0.339034 0.0
1.091121 -0.451558 0.0
1.247526 -0.667924 0.0
1.359433 -0.401208 0.0
1.321986 -0.238459 0.0
1.265334 -0.158135 0.0
1.228063 -0.102587 0.0
1.208426 -0.051371 0.0
1.194771 0.004227 0.0
1.175923 0.058804 0.0
1.148360 0.106127 0.0
1.111764 0.142942 0.0
1.066493 0.167714 0.0
1.012544 0.179965 0.0
0.948937 0.179806 0.0
0.873643 0.167382 0.0
0.785716 0.141713 0.0
0.691049 0.100715 0.0
0.606853 0.041943 0.0
0.551361 -0.039859 0.0
0.535886 -0.133869 0.0
0.559854 -0.213067 0.0
0.612660 -0.259668 0.0
0.685486 -0.263327 0.0
0.772289 -0.220480 0.0
0.867588 -0.135721 0.0
0.961158 -0.026041 0.0
1.036770 0.075171 0.0
1.088953 0.154225 0.0
1.122930 0.215215 0.0
1.141563 0.261119 0.0
1.146866 0.293907 0.0
1.140684 0.315023 0.0
1.124843 0.325622 0.0
1.101134 0.326676 0.0
1.071253 0.319010 0.0
1.036687 0.303367 0.0
0.998388 0.280745 0.0
0.955957 0.253327 0.0
0.906841 0.225388 0.0
0.847542 0.201912 0.0
0.778139 0.183783 0.0
0.706383 0.164009 0.0
0.645107 0.131606 0.0
0.603967 0.080853 0.0
0.584252 0.015585 0.0
0.580557 -0.055364 0.0
0.586213 -0.123004 0.0
0.597022 -0.181675 0.0
0.611182 -0.228423 0.0
0.628322 -0.261489 0.0
0.648998 -0.279442 0.0
0.674285 -0.280988 0.0
0.705296 -0.265308 0.0
0.742678 -0.232690 0.0
0.786252 -0.185094 0.0
0.834883 -0.126286 0.0
0.886444 -0.061552 0.0
0.936461 0.001465 0.0
0.979676 0.054838 0.0
1.014097 0.096829 0.0
1.040073 0.128314 0.0
1.058177 0.150383 0.0
1.069143 0.164252 0.0
1.073807 0.171184 0.0
1.073051 0.172426 0.0
1.067759 0.169161 0.0
1.058781 0.162485 0.0
1.046911 0.153384 0.0
1.032867 0.142738 0.0
1.017279 0.131311 0.0
1.000681 0.119748 0.0
0.983510 0.108547 0.0
0.966123 0.098030 0.0
0.948826 0.088302 0.0
0.931919 0.079249 0.0
0.915740 0.070569 0.0
0.900696 0.061853 0.0
0.887258 0.052697 0.0
0.875924 0.042820 0.0
0.867148 0.032143 0.0
0.861263 0.020821 0.0
0.858420 0.009214 0.0
0.858548 -0.002172 0.0
0.861338 -0.012714 0.0
0.866277 -0.021818 0.0
0.872771 -0.029060 0.0
0.880225 -0.034206 0.0
0.888102 -0.037201 0.0
0.895939 -0.038123 0.0
0.903344 -0.037144 0.0
0.909986 -0.034493 0.0
0.915578 -0.030456 0.0
0.919759 -0.024989 0.0
0.999343 -0.016456 0.0
0.996642 -0.049881 0.0
0.991025 -0.086138 0.0
0.982190 -0.128197 0.0
0.969950 -0.180421 0.0
0.954922 -0.249943 0.0
0.940863 -0.349782 0.0
0.943288 -0.499775 0.0
1.049792 -0.882616 0.0
1.058138 -0.198246 0.0
0.876994 -0.102864 0.0
0.743588 -0.092231 0.0
0.683452 -0.071083 0.0
0.666620 -0.046407 0.0
0.670701 0.008838 0.0
0.670305 0.073438 0.0
0.657411 0.131950 0.0
0.629753 0.181373 0.0
0.584189 0.220118 0.0
0.517916 0.247782 0.0
0.430406 0.263106 0.0
0.328252 0.261529 0.0
0.229146 0.234599 0.0
0.157061 0.174582 0.0
0.129816 0.079516 0.0
0.148271 -0.040395 0.0
0.195140 -0.164728 0.0
0.254170 -0.265205 0.0
0.322153 -0.328319 0.0
0.400377 -0.345727 0.0
0.489470 -0.313977 0.0
0.588526 -0.236580 0.0
0.694854 -0.125080 0.0
0.797284 -0.003832 0.0
0.880888 0.097440 0.0
0.942912 0.175999 0.0
0.987267 0.237346 0.0
1.015712 0.283932 0.0
1.029724 0.317168 0.0
1.030890 0.338151 0.0
1.020865 0.347880 0.0
1.001211 0.347343 0.0
0.973069 0.337743 0.0
0.936534 0.321202 0.0
0.890119 0.301717 0.0
0.831813 0.284421 0.0
0.762833 0.271158 0.0
0.691187 0.255586 0.0
0.629574 0.225575 0.0
0.587711 0.173179 0.0
0.566989 0.101142 0.0
0.562527 0.019475 0.0
0.568137 -0.061169 0.0
0.578991 -0.133709 0.0
0.592059 -0.194847 0.0
0.605779 -0.243130 0.0
0.619737 -0.277880 0.0
0.634542 -0.298531 0.0
0.651657 -0.304301 0.0
0.672973 -0.294322 0.0
0.700160 -0.268243 0.0
0.734048 -0.227004 0.0
0.774327 -0.173286 0.0
0.819584 -0.111368 0.0
0.867443 -0.046594 0.0
0.913393 0.013732 0.0
0.953096 0.063812 0.0
0.985280 0.103171 0.0
1.010047 0.132655 0.0
1.027760 0.153301 0.0
1.038970 0.166261 0.0
1.044350 0.172725 0.0
1.044634 0.173869 0.0
1.040580 0.170810 0.0
1.032921 0.164588 0.0
1.022345 0.156154 0.0
1.009468 0.146360 0.0
0.994823 0.135942 0.0
0.978867 0.125480 0.0
0.962008 0.115342 0.0
0.944654 0.105640 0.0
0.927265 0.096207 0.0
0.910400 0.086655 0.0
0.894726 0.076485 0.0
0.880975 0.065253 0.0
0.869853 0.052720 0.0
0.861926 0.038946 0.0
0.857523 0.024307 0.0
0.856673 0.009421 0.0
0.859090 -0.004925 0.0
0.864186 -0.017847 0.0
0.871222 -0.028661 0.0
0.879471 -0.036960 0.0
0.888299 -0.042588 0.0
0.897182 -0.045580 0.0
0.905702 -0.046101 0.0
0.913527 -0.044395 0.0
0.920381 -0.040738 0.0
0.926027 -0.035448 0.0
0.930121 -0.028272 0.0
0.998755 -0.014554 0.0
0.993615 -0.043943 0.0
0.982689 -0.075534 0.0
0.964541 -0.111818 0.0
0.936510 -0.156529 0.0
0.893719 -0.216017 0.0
0.826562 -0.302492 0.0
0.717327 -0.440255 0.0
0.324686 -0.764523 0.0
-0.484273 0.272750 0.0
-0.484273 0.000000 0.0
-0.035885 -0.025124 0.0
-0.057254 -0.067446 0.0
-0.001116 -0.089352 0.0
0.097584 -0.050997 0.0
0.176408 0.054844 0.0
0.200532 0.139312 0.0
0.190423 0.211778 0.0
0.152801 0.272898 0.0
0.093860 0.320215 0.0
0.024782 0.347262 0.0
-0.038551 0.342860 0.0
-0.081269 0.295091 0.0
-0.094460 0.199366 0.0
-0.076502 0.064020 0.0
-0.034928 -0.084927 0.0
0.019224 -0.221218 0.0
0.077817 -0.326338 0.0
0.138996 -0.396347 0.0
0.206949 -0.423876 0.0
0.285751 -0.403722 0.0
0.376889 -0.337029 0.0
0.478856 -0.232927 0.0
0.587568 -0.107126 0.0
0.689908 0.014790 0.0
0.773022 0.113511 0.0
0.836499 0.192001 0.0
0.882951 0.254381 0.0
0.913552 0.302106 0.0
0.929455 0.336145 0.0
0.931873 0.357492 0.0
0.921846 0.367412 0.0
0.899777 0.367884 0.0
0.865043 0.362329 0.0
0.816664 0.355384 0.0
0.756058 0.349666 0.0
0.690258 0.340693 0.0
0.631145 0.316810 0.0
0.589192 0.267916 0.0
0.567587 0.194306 0.0
0.562766 0.105558 0.0
0.569078 0.013209 0.0
0.581682 -0.073116 0.0
0.597039 -0.147972 0.0
0.612736 -0.209349 0.0
0.627168 -0.256781 0.0
0.639551 -0.290569 0.0
0.650091 -0.311186 0.0
0.660094 -0.318765 0.0
0.671796 -0.312877 0.0
0.687773 -0.292851 0.0
0.710085 -0.258598 0.0
0.739575 -0.211461 0.0
0.775644 -0.154519 0.0
0.816522 -0.092179 0.0
0.859495 -0.029607 0.0
0.900280 0.026664 0.0
0.935495 0.072919 0.0
0.964339 0.109297 0.0
0.986742 0.136543 0.0
1.002929 0.155621 0.0
1.013313 0.167602 0.0
1.018424 0.173597 0.0
1.018853 0.174707 0.0
1.015210 0.171993 0.0
1.008082 0.166453 0.0
0.998014 0.159007 0.0
0.985500 0.150455 0.0
0.971005 0.141418 0.0
0.955007 0.132260 0.0
0.938062 0.123022 0.0
0.920854 0.113422 0.0
0.904223 0.102937 0.0
0.889116 0.090984 0.0
0.876484 0.077138 0.0
0.867133 0.061308 0.0
0.861589 0.043827 0.0
0.860012 0.025406 0.0
0.862180 0.007003 0.0
0.867487 -0.010230 0.0
0.875069 -0.025221 0.0
0.884059 -0.037313 0.0
0.893713 -0.046212 0.0
0.903443 -0.051893 0.0
0.912801 -0.054516 0.0
0.921460 -0.054344 0.0
0.929175 -0.051692 0.0
0.935759 -0.046879 0.0
0.941050 -0.040244 0.0
0.944777 -0.031297 0.0
0.998315 -0.011624 0.0
0.991374 -0.034792 0.0
0.976590 -0.058975 0.0
0.951845 -0.085483 0.0
0.913042 -0.116030 0.0
0.852274 -0.152956 0.0
0.753002 -0.199124 0.0
0.575638 -0.257023 0.0
0.230181 -0.312169 0.0
0.000000 0.272750 0.0
-0.000000 -0.000000 0.0
0.000000 0.000000 0.0
-0.039205 -0.040981 0.0
-0.084851 -0.124533 0.0
-0.095638 -0.103729 0.0
-0.087450 0.020565 0.0
-0.073865 0.135883 0.0
-0.081668 0.233118 0.0
-0.105997 0.313508 0.0
-0.139257 0.371807 0.0
-0.171865 0.397357 0.0
-0.193608 0.377841 0.0
-0.195717 0.304937 0.0
-0.172304 0.179298 0.0
-0.124724 0.018549 0.0
-0.067438 -0.138316 0.0
-0.013670 -0.275749 0.0
0.034158 -0.378228 0.0
0.077977 -0.449455 0.0
0.123698 -0.484443 0.0
0.178922 -0.477179 0.0
0.249336 -0.425124 0.0
0.335632 -0.333095 0.0
0.433628 -0.213667 0.0
0.536151 -0.083532 0.0
0.629742 0.035128 0.0
0.705059 0.131590 0.0
0.763070 0.210329 0.0
0.805121 0.273506 0.0
0.831892 0.322070 0.0
0.843956 0.357084 0.0
0.841588 0.380216 0.0
0.824517 0.394220 0.0
0.792313 0.402932 0.0
0.746227 0.409246 0.0
0.691863 0.410775 0.0
0.639559 0.397689 0.0
0.600034 0.358452 0.0
0.578522 0.289738 0.0
0.573517 0.199094 0.0
0.580392 0.098717 0.0
0.594760 -0.000631 0.0
0.613108 -0.090229 0.0
0.632673 -0.165782 0.0
0.651369 -0.225932 0.0
0.667553 -0.270814 0.0
0.680110 -0.301476 0.0
0.688670 -0.319379 0.0
0.693903 -0.325809 0.0
0.697702 -0.321334 0.0
0.702964 -0.305632 0.0
0.712823 -0.277989 0.0
0.729597 -0.238334 0.0
0.754024 -0.188142 0.0
0.785182 -0.130592 0.0
0.820971 -0.069957 0.0
0.858333 -0.011132 0.0
0.893455 0.040378 0.0
0.923842 0.082607 0.0
0.948855 0.115817 0.0
0.968335 0.140681 0.0
0.982400 0.158093 0.0
0.991341 0.169056 0.0
0.995542 0.174618 0.0
0.995441 0.175827 0.0
0.991485 0.173702 0.0
0.984120 0.169191 0.0
0.973795 0.163109 0.0
0.961001 0.156052 0.0
0.946333 0.148291 0.0
0.930547 0.139721 0.0
0.914593 0.129884 0.0
0.899572 0.118126 0.0
0.886629 0.103845 0.0
0.876782 0.086756 0.0
0.870756 0.067067 0.0
0.868865 0.045503 0.0
0.870985 0.023188 0.0
0.876580 0.001459 0.0
0.884746 -0.018158 0.0
0.894475 -0.034603 0.0
0.904915 -0.047360 0.0
0.915400 -0.056305 0.0
0.925441 -0.061572 0.0
0.934699 -0.063454 0.0
0.942951 -0.062317 0.0
0.950059 -0.058543 0.0
0.955933 -0.052486 0.0
0.960507 -0.044502 0.0
0.963615 -0.033873 0.0
0.998111 -0.008050 0.0
0.990366 -0.023680 0.0
0.974008 -0.038945 0.0
0.947023 -0.053783 0.0
0.905772 -0.067677 0.0
0.844238 -0.079006 0.0
0.753145 -0.082711 0.0
0.621332 -0.064259 0.0
0.450661 0.017205 0.0
0.178739 0.160089 0.0
0.000000 0.000000 0.0
-0.000000 -0.000000 0.0
0.000000 0.000000 0.0
-0.057080 -0.059046 0.0
-0.128793 -0.084751 0.0
-0.152496 0.017102 0.0
-0.165656 0.138921 0.0
-0.174027 0.246254 0.0
-0.183258 0.333933 0.0
-0.192065 0.393449 0.0
-0.195512 0.411771 0.0
-0.187132 0.376791 0.0
-0.160106 0.281069 0.0
-0.104676 0.124323 0.0
-0.031764 -0.046968 0.0
0.033679 -0.195527 0.0
0.082419 -0.321046 0.0
0.116450 -0.414791 0.0
0.140161 -0.480422 0.0
0.157877 -0.516914 0.0
0.178523 -0.520579 0.0
0.212896 -0.486513 0.0
0.267985 -0.413090 0.0
0.342930 -0.306612 0.0
0.430390 -0.180568 0.0
0.520223 -0.051259 0.0
0.600025 0.062858 0.0
0.663594 0.157480 0.0
0.711970 0.235930 0.0
0.745414 0.299432 0.0
0.763828 0.349245 0.0
0.766856 0.387394 0.0
0.754188 0.416780 0.0
0.726735 0.440029 0.0
0.688602 0.456367 0.0
0.648051 0.458568 0.0
0.615033 0.435219 0.0
0.596169 0.379311 0.0
0.592119 0.294442 0.0
0.599709 0.191804 0.0
0.615358 0.083482 0.0
0.636125 -0.020530 0.0
0.659232 -0.111784 0.0
0.682277 -0.186836 0.0
0.703430 -0.244728 0.0
0.721215 -0.285988 0.0
0.734508 -0.312152 0.0
0.742620 -0.325375 0.0
0.745527 -0.327953 0.0
0.744242 -0.321704 0.0
0.741085 -0.307367 0.0
0.739446 -0.284474 0.0
0.742861 -0.252038 0.0
0.753787 -0.209792 0.0
0.772812 -0.159126 0.0
0.798711 -0.103111 0.0
0.829116 -0.045747 0.0
0.860706 0.008281 0.0
0.890211 0.054811 0.0
0.915862 0.092949 0.0
0.937009 0.122922 0.0
0.953425 0.145368 0.0