# vtk DataFile Version 3.0
Scalar Field
ASCII
DATASET RECTILINEAR_GRID
DIMENSIONS 100 26 1
X_COORDINATES 100 double
0.050000 0.150000 0.250000 0.350000 0.450000 0.550000 0.650000 0.750000 0.850000 0.950000 1.050000 1.150000 1.250000 1.350000 1.450000 1.550000 1.650000 1.750000 1.850000 1.950000 2.050000 2.150000 2.250000 2.350000 2.450000 2.550000 2.650000 2.750000 2.850000 2.950000 3.050000 3.150000 3.250000 3.350000 3.450000 3.550000 3.650000 3.750000 3.850000 3.950000 4.050000 4.150000 4.250000 4.350000 4.450000 4.550000 4.650000 4.750000 4.850000 4.950000 5.050000 5.150000 5.250000 5.350000 5.450000 5.550000 5.650000 5.750000 5.850000 5.950000 6.050000 6.150000 6.250000 6.350000 6.450000 6.550000 6.650000 6.750000 6.850000 6.950000 7.050000 7.150000 7.250000 7.350000 7.450000 7.550000 7.650000 7.750000 7.850000 7.950000 8.050000 8.150000 8.250000 8.350000 8.450000 8.550000 8.650000 8.750000 8.850000 8.950000 9.050000 9.150000 9.250000 9.350000 9.450000 9.550000 9.650000 9.750000 9.850000 9.950000 
Y_COORDINATES 26 double
0.050000 0.150000 0.250000 0.350000 0.450000 0.550000 0.650000 0.750000 0.850000 0.950000 1.050000 1.150000 1.250000 1.350000 1.450000 1.550000 1.650000 1.750000 1.850000 1.950000 2.050000 2.150000 2.250000 2.350000 2.450000 2.550000 
Z_COORDINATES 1 double
0.0
POINT_DATA 2600
SCALARS Skalarfeld double 1
LOOKUP_TABLE default
0.279400
0.264191
0.249214
0.231443
0.209800
0.183864
0.153651
0.119604
0.082637
0.044135
0.005833
-0.030469
-0.063213
-0.091295
-0.114149
-0.131676
-0.143884
-0.151434
-0.155089
-0.155675
-0.153994
-0.150750
-0.146478
-0.141502
-0.135930
-0.129715
-0.122762
-0.115048
-0.106704
-0.098042
-0.089515
-0.081629
-0.074836
-0.069422
-0.065429
-0.062605
-0.060418
-0.058121
-0.054831
-0.049603
-0.041735
-0.030196
-0.015828
-0.000991
0.013069
0.025806
0.036980
0.046432
0.054014
0.059626
0.063212
0.064752
0.064477
0.061928
0.056702
0.048548
0.037587
0.024632
0.011316
-0.000433
-0.009396
-0.015601
-0.019773
-0.022460
-0.023713
-0.023317
-0.021351
-0.018255
-0.014575
-0.010707
-0.006999
-0.003747
-0.001196
0.000389
0.001040
0.000690
-0.000518
-0.002266
-0.004152
-0.005755
-0.006718
-0.006866
-0.006085
-0.004785
-0.003562
-0.002765
-0.002623
-0.003300
-0.004864
-0.007194
-0.010191
-0.013670
-0.017444
-0.021243
-0.024909
-0.028637
-0.032662
-0.037138
-0.042115
-0.047693
0.270419
0.264012
0.252000
0.235396
0.214075
0.187879
0.156859
0.121467
0.082704
0.042174
0.001948
-0.035872
-0.069567
-0.098000
-0.120616
-0.137361
-0.148789
-0.155493
-0.158256
-0.157996
-0.155609
-0.151886
-0.147421
-0.142548
-0.137319
-0.131574
-0.125094
-0.117752
-0.109623
-0.101006
-0.092372
-0.084265
-0.077175
-0.071429
-0.067093
-0.063937
-0.061441
-0.058866
-0.055297
-0.049563
-0.040232
-0.028066
-0.014375
-0.000347
0.013050
0.025323
0.036218
0.045547
0.053142
0.058915
0.062985
0.065357
0.065151
0.062639
0.057336
0.048929
0.037524
0.024059
0.010412
-0.001330
-0.010075
-0.016151
-0.020447
-0.023337
-0.024607
-0.024265
-0.022100
-0.018802
-0.014995
-0.010985
-0.007140
-0.003753
-0.001059
0.000831
0.001604
0.001137
-0.000243
-0.002174
-0.004231
-0.005952
-0.006915
-0.006803
-0.005851
-0.004586
-0.003360
-0.002492
-0.002243
-0.002802
-0.004243
-0.006610
-0.009706
-0.013286
-0.017057
-0.020900
-0.024572
-0.028349
-0.032467
-0.037055
-0.042128
-0.048038
0.273257
0.269201
0.259064
0.243451
0.222333
0.195496
0.162856
0.124772
0.082350
0.037618
-0.006563
-0.047413
-0.082914
-0.111950
-0.134171
-0.149810
-0.159534
-0.164222
-0.164950
-0.162828
-0.158960
-0.154352
-0.149756
-0.145525
-0.141542
-0.137331
-0.132324
-0.126121
-0.118638
-0.110124
-0.101077
-0.092105
-0.083777
-0.076496
-0.070409
-0.065368
-0.060933
-0.056421
-0.050975
-0.043691
-0.033961
-0.021989
-0.009525
0.002940
0.014887
0.025943
0.035859
0.044416
0.051412
0.056718
0.060319
0.062230
0.062283
0.059430
0.053959
0.045780
0.035139
0.022902
0.010569
-0.000349
-0.009084
-0.015754
-0.020743
-0.024035
-0.025259
-0.024229
-0.021894
-0.018887
-0.015278
-0.011258
-0.007410
-0.004005
-0.001323
0.000439
0.001132
0.000811
-0.000436
-0.002244
-0.004131
-0.005644
-0.006435
-0.006345
-0.005521
-0.004283
-0.002967
-0.001919
-0.001468
-0.001897
-0.003258
-0.005549
-0.008596
-0.012145
-0.015880
-0.019531
-0.023374
-0.027468
-0.031947
-0.036944
-0.042672
-0.050903
0.283595
0.280301
0.271184
0.256254
0.235141
0.207263
0.172122
0.129753
0.081303
0.029460
-0.021212
-0.066689
-0.104621
-0.134137
-0.155331
-0.168873
-0.175784
-0.177285
-0.174734
-0.169556
-0.163203
-0.157027
-0.152079
-0.148848
-0.146926
-0.145255
-0.142650
-0.138256
-0.131754
-0.123349
-0.113613
-0.103270
-0.093007
-0.083340
-0.074531
-0.066559
-0.059145
-0.051807
-0.043969
-0.035128
-0.025075
-0.014061
-0.002718
0.008303
0.018735
0.028365
0.036970
0.044304
0.050126
0.054294
0.056771
0.057547
0.056538
0.053612
0.048176
0.040258
0.030604
0.019856
0.009114
-0.000591
-0.008676
-0.015031
-0.019698
-0.022597
-0.023627
-0.022926
-0.020913
-0.017800
-0.014049
-0.010330
-0.006845
-0.003663
-0.001212
0.000309
0.000787
0.000269
-0.001046
-0.002784
-0.004510
-0.005836
-0.006497
-0.006396
-0.005618
-0.004383
-0.002985
-0.001754
-0.001005
-0.000973
-0.001902
-0.003811
-0.006590
-0.010035
-0.013800
-0.017689
-0.021775
-0.026104
-0.030772
-0.035958
-0.042108
-0.055083
0.299989
0.297086
0.288737
0.274495
0.253470
0.224403
0.185948
0.137319
0.079406
0.015714
-0.045116
-0.096925
-0.137425
-0.166637
-0.185544
-0.195494
-0.198009
-0.194709
-0.187288
-0.177543
-0.167376
-0.158738
-0.153252
-0.151546
-0.152917
-0.155294
-0.156287
-0.154369
-0.148966
-0.140373
-0.129408
-0.117057
-0.104218
-0.091569
-0.079508
-0.068166
-0.057448
-0.047109
-0.036859
-0.026484
-0.015946
-0.005410
0.004839
0.014553
0.023706
0.032027
0.039309
0.045287
0.049684
0.052401
0.053475
0.052935
0.050723
0.046721
0.040830
0.033240
0.024254
0.014543
0.005124
-0.003265
-0.010187
-0.015486
-0.019142
-0.021152
-0.021567
-0.020561
-0.018418
-0.015443
-0.012013
-0.008467
-0.005023
-0.002189
-0.000116
0.001044
0.001156
0.000254
-0.001414
-0.003440
-0.005370
-0.006822
-0.007558
-0.007513
-0.006742
-0.005419
-0.003821
-0.002282
-0.001146
-0.000715
-0.001223
-0.002748
-0.005199
-0.008330
-0.011957
-0.015911
-0.020027
-0.024223
-0.028612
-0.033445
-0.039295
-0.051719
0.321700
0.319195
0.311825
0.298757
0.278473
0.248684
0.206497
0.149237
0.076540
-0.007819
-0.084112
-0.143288
-0.185074
-0.211921
-0.226346
-0.230552
-0.226600
-0.216503
-0.202247
-0.185974
-0.170099
-0.157534
-0.151113
-0.152150
-0.159140
-0.168043
-0.174481
-0.175905
-0.171544
-0.162111
-0.149015
-0.133752
-0.117572
-0.101370
-0.085693
-0.070802
-0.056755
-0.043489
-0.030915
-0.018986
-0.007733
0.002745
0.012343
0.020990
0.028673
0.035789
0.041781
0.046440
0.049381
0.050619
0.050373
0.048754
0.045687
0.040980
0.034487
0.026321
0.016955
0.007798
-0.000904
-0.008257
-0.013981
-0.017988
-0.020324
-0.021098
-0.020479
-0.018696
-0.016031
-0.012786
-0.009273
-0.005784
-0.002595
-0.000013
0.001778
0.002522
0.002130
0.000679
-0.001583
-0.004257
-0.006871
-0.008964
-0.010122
-0.010354
-0.009690
-0.008277
-0.006412
-0.004472
-0.002843
-0.001874
-0.001825
-0.002823
-0.004834
-0.007687
-0.011135
-0.014882
-0.018694
-0.022443
-0.026088
-0.029775
-0.033906
-0.041559
0.347979
0.346054
0.340246
0.329422
0.311407
0.282557
0.237399
0.169119
0.072816
-0.050575
-0.148596
-0.212528
-0.250898
-0.271346
-0.278142
-0.274016
-0.261363
-0.242397
-0.219322
-0.194547
-0.170509
-0.151488
-0.142726
-0.147343
-0.163197
-0.183282
-0.197941
-0.203811
-0.200227
-0.188976
-0.172605
-0.153424
-0.133148
-0.112910
-0.093375
-0.074890
-0.057599
-0.041546
-0.026747
-0.013237
-0.001076
0.009666
0.018942
0.026728
0.033012
0.037794
0.041925
0.045185
0.046546
0.046219
0.044819
0.042644
0.039551
0.035131
0.028996
0.021039
0.011603
0.001507
-0.007346
-0.014281
-0.019260
-0.022250
-0.023389
-0.022914
-0.021113
-0.018303
-0.014813
-0.010965
-0.007058
-0.003365
-0.000137
0.002374
0.003926
0.004278
0.003298
0.001045
-0.002193
-0.005933
-0.009603
-0.012669
-0.014758
-0.015524
-0.015007
-0.013439
-0.011199
-0.008730
-0.006474
-0.004820
-0.004063
-0.004371
-0.005761
-0.008107
-0.011158
-0.014578
-0.018007
-0.021140
-0.023708
-0.025703
-0.027189
-0.028177
0.377742
0.376675
0.373296
0.366360
0.353269
0.329042
0.284586
0.204763
0.068940
-0.134677
-0.254390
-0.308379
-0.332705
-0.341351
-0.337673
-0.323337
-0.301109
-0.272090
-0.238444
-0.203394
-0.170611
-0.141928
-0.127172
-0.133940
-0.159511
-0.194275
-0.223715
-0.235320
-0.232211
-0.218290
-0.197878
-0.174310
-0.149764
-0.125532
-0.102329
-0.080521
-0.060288
-0.041722
-0.024890
-0.009864
0.003276
0.014444
0.023531
0.030400
0.034977
0.037367
0.037743
0.036797
0.036240
0.034455
0.032714
0.031183
0.029391
0.026627
0.022234
0.015843
0.007556
-0.001961
-0.011514
-0.019449
-0.024371
-0.026987
-0.027458
-0.026110
-0.023342
-0.019575
-0.015217
-0.010644
-0.006185
-0.002125
0.001279
0.003772
0.005089
0.004969
0.003256
0.000005
-0.004453
-0.009535
-0.014520
-0.018723
-0.021668
-0.022943
-0.022464
-0.020602
-0.017844
-0.014712
-0.011708
-0.009259
-0.007688
-0.007193
-0.007827
-0.009499
-0.011972
-0.014887
-0.017807
-0.020269
-0.021847
-0.022108
-0.020822
-0.015438
0.409392
0.409474
0.409459
0.408351
0.403818
0.390583
0.356537
0.273686
0.071762
-0.313988
-0.414689
-0.416366
-0.412985
-0.408106
-0.394637
-0.373913
-0.343725
-0.304850
-0.260722
-0.215380
-0.173177
-0.139383
-0.114926
-0.119571
-0.149434
-0.193015
-0.235522
-0.259716
-0.257846
-0.241809
-0.218231
-0.191451
-0.163914
-0.136929
-0.111178
-0.087021
-0.064664
-0.044252
-0.025904
-0.009740
0.004108
0.015447
0.023923
0.029027
0.030463
0.028692
0.024892
0.020365
0.016147
0.014043
0.013560
0.014113
0.014874
0.014916
0.013394
0.009729
0.003772
-0.004071
-0.012841
-0.021219
-0.027617
-0.030553
-0.031074
-0.029500
-0.026291
-0.021953
-0.016982
-0.011834
-0.006901
-0.002517
0.001027
0.003445
0.004440
0.003732
0.001153
-0.003229
-0.009011
-0.015475
-0.021729
-0.026935
-0.030518
-0.032008
-0.031352
-0.029020
-0.025596
-0.021687
-0.017849
-0.014543
-0.012115
-0.010777
-0.010606
-0.011532
-0.013336
-0.015654
-0.018002
-0.019816
-0.020504
-0.019480
-0.016077
-0.006027
0.440803
0.442215
0.446188
0.452407
0.459863
0.465460
0.459617
0.410622
0.176286
-0.642526
-0.599977
-0.484020
-0.457348
-0.448066
-0.437348
-0.415921
-0.381660
-0.337674
-0.288418
-0.238564
-0.192387
-0.154486
-0.133607
-0.133344
-0.155260
-0.191882
-0.230305
-0.258130
-0.265083
-0.249268
-0.225262
-0.198238
-0.170552
-0.143367
-0.117272
-0.092624
-0.069695
-0.048732
-0.029978
-0.013689
-0.000189
0.010022
0.016200
0.017635
0.014363
0.007722
-0.000011
-0.006742
-0.011066
-0.011602
-0.009486
-0.005839
-0.001771
0.001663
0.003538
0.003162
0.000198
-0.005202
-0.012344
-0.020078
-0.027050
-0.031639
-0.032838
-0.031731
-0.028745
-0.024413
-0.019302
-0.013949
-0.008826
-0.004338
-0.000834
0.001353
0.001892
0.000482
-0.003044
-0.008577
-0.015618
-0.023307
-0.030600
-0.036541
-0.040491
-0.041905
-0.040849
-0.037871
-0.033646
-0.028863
-0.024134
-0.019952
-0.016675
-0.014521
-0.013573
-0.013772
-0.014916
-0.016646
-0.018462
-0.019748
-0.019820
-0.017960
-0.013425
-0.001075
0.469529
0.472212
0.480047
0.493587
0.513777
0.541833
0.578554
0.620575
0.703860
0.030667
-0.534640
-0.469303
-0.459546
-0.458548
-0.452026
-0.434865
-0.405602
-0.366725
-0.323581
-0.281560
-0.243118
-0.212556
-0.194946
-0.187198
-0.190736
-0.205604
-0.224565
-0.239206
-0.243624
-0.235675
-0.214237
-0.190303
-0.165647
-0.141235
-0.117497
-0.094757
-0.073367
-0.053728
-0.036275
-0.021503
-0.010044
-0.002768
-0.000654
-0.004171
-0.012395
-0.022833
-0.032442
-0.039024
-0.040971
-0.038399
-0.032750
-0.025442
-0.017761
-0.010821
-0.005548
-0.002643
-0.002526
-0.005230
-0.010306
-0.016821
-0.023510
-0.029066
-0.031892
-0.031774
-0.029615
-0.025881
-0.021165
-0.016069
-0.011142
-0.006864
-0.003651
-0.001890
-0.001951
-0.004153
-0.008649
-0.015269
-0.023417
-0.032109
-0.040189
-0.046616
-0.050710
-0.051812
-0.050163
-0.046388
-0.041253
-0.035527
-0.029881
-0.024838
-0.020763
-0.017869
-0.016232
-0.015797
-0.016371
-0.017609
-0.019019
-0.019977
-0.019770
-0.017645
-0.012824
-0.000496
0.493238
0.496852
0.507490
0.526278
0.555390
0.598633
0.662680
0.758842
0.891994
0.922573
0.000000
-0.459906
-0.450509
-0.443976
-0.438773
-0.430108
-0.413111
-0.391166
-0.368213
-0.346228
-0.325191
-0.306520
-0.287803
-0.266756
-0.248343
-0.235041
-0.225337
-0.217977
-0.210116
-0.199346
-0.185933
-0.167052
-0.147543
-0.128218
-0.109198
-0.090662
-0.072999
-0.056747
-0.042550
-0.031175
-0.023593
-0.020965
-0.024214
-0.033097
-0.045532
-0.058130
-0.067671
-0.072168
-0.070166
-0.063440
-0.053636
-0.042358
-0.031000
-0.020694
-0.012310
-0.006481
-0.003607
-0.003799
-0.006788
-0.011855
-0.017888
-0.023591
-0.027751
-0.029148
-0.028244
-0.025558
-0.021687
-0.017266
-0.012904
-0.009143
-0.006466
-0.005314
-0.006099
-0.009151
-0.014603
-0.022222
-0.031324
-0.040831
-0.049505
-0.056240
-0.060304
-0.060912
-0.058532
-0.053864
-0.047764
-0.041080
-0.034539
-0.028694
-0.023911
-0.020392
-0.018199
-0.017271
-0.017421
-0.018324
-0.019510
-0.020380
-0.020247
-0.018388
-0.014096
-0.003389
0.510232
0.514249
0.526039
0.546742
0.578408
0.624052
0.687193
0.769775
0.866245
0.953151
0.864819
0.000000
-0.438824
-0.427138
-0.416890
-0.413053
-0.412485
-0.414334
-0.419646
-0.425903
-0.427365
-0.420007
-0.394213
-0.355156
-0.310922
-0.267824
-0.230190
-0.198894
-0.174640
-0.156256
-0.141939
-0.129746
-0.116555
-0.103435
-0.090605
-0.077916
-0.065702
-0.054588
-0.045394
-0.039164
-0.037186
-0.040745
-0.050323
-0.064620
-0.080451
-0.093969
-0.102274
-0.102817
-0.096130
-0.084738
-0.070532
-0.055264
-0.040388
-0.027017
-0.015940
-0.007682
-0.002553
-0.000654
-0.001810
-0.005476
-0.010719
-0.016356
-0.021241
-0.024143
-0.024503
-0.023069
-0.020309
-0.016841
-0.013301
-0.010281
-0.008318
-0.007906
-0.009495
-0.013425
-0.019802
-0.028337
-0.038274
-0.048464
-0.057607
-0.064528
-0.068390
-0.068383
-0.065214
-0.059648
-0.052620
-0.045050
-0.037714
-0.031186
-0.025831
-0.021836
-0.019248
-0.017994
-0.017894
-0.018643
-0.019807
-0.020832
-0.021086
-0.019926
-0.016760
-0.008710
0.519780
0.523664
0.534969
0.554473
0.583446
0.623539
0.676116
0.739378
0.799682
0.819449
0.776487
0.659972
0.000000
-0.413321
-0.399503
-0.399136
-0.411643
-0.435282
-0.469461
-0.505653
-0.528240
-0.523203
-0.485703
-0.428046
-0.361232
-0.293495
-0.231197
-0.178793
-0.138599
-0.110344
-0.092038
-0.080754
-0.073535
-0.066986
-0.060839
-0.054705
-0.048876
-0.044044
-0.041213
-0.041705
-0.047029
-0.058269
-0.075037
-0.094796
-0.113476
-0.127051
-0.132774
-0.128344
-0.116863
-0.100826
-0.082439
-0.063559
-0.045633
-0.029707
-0.016469
-0.006320
0.000540
0.004070
0.004413
0.001987
-0.002439
-0.007800
-0.012936
-0.016812
-0.018556
-0.018414
-0.016835
-0.014417
-0.011805
-0.009623
-0.008453
-0.008836
-0.011254
-0.016053
-0.023309
-0.032680
-0.043350
-0.054120
-0.063640
-0.070706
-0.074025
-0.073425
-0.069533
-0.063189
-0.055400
-0.047135
-0.039202
-0.032186
-0.026447
-0.022156
-0.019344
-0.017935
-0.017754
-0.018522
-0.019846
-0.021228
-0.022110
-0.021944
-0.020274
-0.015349
0.522138
0.525500
0.535214
0.551699
0.575477
0.606695
0.644040
0.682473
0.708708
0.697340
0.630771
0.543458
0.377476
0.000000
-0.399313
-0.399122
-0.410442
-0.446534
-0.501937
-0.563420
-0.605112
-0.592460
-0.541553
-0.467432
-0.382932
-0.297904
-0.219617
-0.153095
-0.101067
-0.063926
-0.040216
-0.027182
-0.021660
-0.020481
-0.020394
-0.020544
-0.021246
-0.023318
-0.027950
-0.036664
-0.050894
-0.071058
-0.095552
-0.120651
-0.141702
-0.154871
-0.156627
-0.146903
-0.130725
-0.110599
-0.088796
-0.067148
-0.047009
-0.029302
-0.014581
-0.003127
0.004967
0.009728
0.011292
0.009979
0.006400
0.001470
-0.003728
-0.008217
-0.010953
-0.011891
-0.011369
-0.009930
-0.008203
-0.006831
-0.006433
-0.007587
-0.010801
-0.016417
-0.024476
-0.034584
-0.045871
-0.057090
-0.066845
-0.073885
-0.076578
-0.075451
-0.071012
-0.064151
-0.055904
-0.047261
-0.039035
-0.031803
-0.025913
-0.021524
-0.018658
-0.017241
-0.017116
-0.018034
-0.019647
-0.021517
-0.023163
-0.024138
-0.024111
-0.022380
0.518281
0.520894
0.528333
0.540608
0.557494
0.578044
0.599654
0.616511
0.617507
0.585020
0.501501
0.358949
0.211493
-0.206584
-0.435466
-0.376144
-0.391711
-0.441291
-0.513462
-0.588553
-0.630461
-0.607160
-0.547293
-0.464794
-0.372632
-0.280744
-0.196131
-0.123386
-0.065062
-0.021848
0.007145
0.023980
0.031343
0.031871
0.027204
0.021957
0.015232
0.006045
-0.006851
-0.024864
-0.048885
-0.078251
-0.110082
-0.139719
-0.162140
-0.173392
-0.169517
-0.155991
-0.136343
-0.113444
-0.089579
-0.066458
-0.045271
-0.026774
-0.011380
0.000746
0.009598
0.015256
0.017853
0.017625
0.015022
0.010782
0.005873
0.001286
-0.002191
-0.003915
-0.004213
-0.003562
-0.002570
-0.001887
-0.002161
-0.004001
-0.007926
-0.014264
-0.023012
-0.033719
-0.045465
-0.056963
-0.066771
-0.073511
-0.075704
-0.074210
-0.069524
-0.062530
-0.054253
-0.045657
-0.037524
-0.030403
-0.024622
-0.020329
-0.017553
-0.016234
-0.016243
-0.017372
-0.019321
-0.021713
-0.024140
-0.026248
-0.027820
-0.029054
0.509592
0.511339
0.516214
0.523931
0.533793
0.544277
0.552366
0.552597
0.535996
0.489267
0.395084
0.230535
-0.052636
-0.624662
-0.494789
-0.380446
-0.384387
-0.436356
-0.509746
-0.579140
-0.595953
-0.568179
-0.507834
-0.427790
-0.339456
-0.251544
-0.170050
-0.098725
-0.039596
0.006541
0.039844
0.061501
0.073381
0.077036
0.073112
0.065410
0.054018
0.038218
0.017184
-0.009890
-0.042933
-0.080080
-0.117417
-0.149759
-0.172245
-0.178911
-0.170930
-0.154736
-0.133406
-0.109640
-0.085517
-0.062517
-0.041617
-0.023401
-0.008162
0.004015
0.013180
0.019444
0.022938
0.023826
0.022407
0.019215
0.015036
0.010771
0.007181
0.004996
0.004179
0.004295
0.004760
0.004924
0.004121
0.001722
-0.002793
-0.009721
-0.019003
-0.030129
-0.042134
-0.053713
-0.063466
-0.069519
-0.071448
-0.069903
-0.065384
-0.058743
-0.050944
-0.042877
-0.035258
-0.028584
-0.023158
-0.019126
-0.016533
-0.015357
-0.015510
-0.016830
-0.019070
-0.021909
-0.025011
-0.028100
-0.031054
-0.034797
0.497675
0.498571
0.500965
0.504418
0.508018
0.510081
0.507718
0.496289
0.468867
0.415802
0.324330
0.178046
-0.043208
-0.317996
-0.363029
-0.355489
-0.375270
-0.420861
-0.476665
-0.516166
-0.519135
-0.491622
-0.439354
-0.371172
-0.295650
-0.219686
-0.148207
-0.084357
-0.029842
0.014723
0.049509
0.075113
0.091955
0.100120
0.103141
0.097932
0.084719
0.064423
0.037273
0.003537
-0.035566
-0.077141
-0.116613
-0.148534
-0.167896
-0.169216
-0.159930
-0.143489
-0.122898
-0.100538
-0.078142
-0.056895
-0.037556
-0.020579
-0.006189
0.005548
0.014680
0.021315
0.025572
0.027572
0.027501
0.025706
0.022756
0.019376
0.016241
0.014127
0.013170
0.013036
0.013202
0.013035
0.011862
0.009048
0.004088
-0.003269
-0.012900
-0.024232
-0.036254
-0.047640
-0.056917
-0.062375
-0.064423
-0.063238
-0.059369
-0.053608
-0.046807
-0.039740
-0.033021
-0.027083
-0.022198
-0.018526
-0.016147
-0.015090
-0.015326
-0.016743
-0.019144
-0.022262
-0.025820
-0.029609
-0.033588
-0.039210
0.484108
0.484244
0.484459
0.484272
0.482756
0.478333
0.468522
0.449673
0.416777
0.363463
0.282338
0.166430
0.014771
-0.149382
-0.238380
-0.284833
-0.324427
-0.366668
-0.405473
-0.426187
-0.426362
-0.404790
-0.364739
-0.311844
-0.252087
-0.190659
-0.131517
-0.077354
-0.029755
0.010579
0.043582
0.069513
0.088608
0.102569
0.111501
0.109926
0.098028
0.076916
0.047800
0.011991
-0.028326
-0.069565
-0.106927
-0.135327
-0.147374
-0.147283
-0.138755
-0.124590
-0.107205
-0.088430
-0.069548
-0.051423
-0.034631
-0.019554
-0.006431
0.004615
0.013560
0.020449
0.025365
0.028402
0.029687
0.029442
0.028050
0.026057
0.023996
0.022589
0.021914
0.021838
0.021943
0.021638
0.020263
0.017190
0.011945
0.004332
-0.005450
-0.016762
-0.028568
-0.039579
-0.048049
-0.053390
-0.055775
-0.055354
-0.052615
-0.048222
-0.042866
-0.037168
-0.031621
-0.026588
-0.022326
-0.019020
-0.016812
-0.015796
-0.016006
-0.017383
-0.019770
-0.022940
-0.026663
-0.030785
-0.035321
-0.042057
0.470298
0.469797
0.468208
0.465099
0.459649
0.450526
0.435759
0.412649
0.377792
0.327313
0.257524
0.166429
0.057168
-0.056627
-0.143430
-0.205227
-0.253545
-0.294035
-0.325069
-0.341462
-0.342701
-0.327981
-0.299231
-0.260022
-0.214448
-0.166319
-0.118741
-0.073986
-0.033517
0.001887
0.031975
0.056848
0.076824
0.092722
0.101888
0.102376
0.093523
0.075533
0.049324
0.016645
-0.019700
-0.055791
-0.087008
-0.107643
-0.116359
-0.117003
-0.111467
-0.101760
-0.089537
-0.075980
-0.061871
-0.047754
-0.034057
-0.021157
-0.009380
0.001017
0.009867
0.017093
0.022694
0.026715
0.029262
0.030490
0.030666
0.030250
0.029891
0.029524
0.029488
0.029776
0.030065
0.029822
0.028416
0.025245
0.019875
0.012178
0.002436
-0.008639
-0.019977
-0.030196
-0.038179
-0.043750
-0.046830
-0.047587
-0.046393
-0.043729
-0.040091
-0.035931
-0.031626
-0.027489
-0.023787
-0.020755
-0.018616
-0.017538
-0.017612
-0.018820
-0.021030
-0.024036
-0.027632
-0.031693
-0.036261
-0.043235
0.457428
0.456399
0.453355
0.447973
0.439608
0.427221
0.409337
0.384054
0.349164
0.302454
0.242292
0.168663
0.084778
-0.001456
-0.076902
-0.138146
-0.187398
-0.226550
-0.255169
-0.271617
-0.275444
-0.266717
-0.246863
-0.218324
-0.183981
-0.146647
-0.108740
-0.072133
-0.038125
-0.007498
0.019385
0.042461
0.061881
0.076993
0.086274
0.088464
0.082806
0.069239
0.048506
0.022311
-0.006597
-0.034556
-0.057495
-0.072673
-0.081221
-0.084214
-0.083023
-0.078938
-0.072894
-0.065407
-0.056708
-0.046970
-0.036478
-0.025653
-0.014979
-0.004923
0.004146
0.011975
0.018442
0.023498
0.027267
0.029934
0.031769
0.032991
0.033811
0.034518
0.035319
0.036191
0.036859
0.036844
0.035556
0.032427
0.027065
0.019417
0.009862
-0.000801
-0.011414
-0.020949
-0.028823
-0.034839
-0.038954
-0.041223
-0.041816
-0.040998
-0.039069
-0.036330
-0.033078
-0.029620
-0.026269
-0.023332
-0.021150
-0.019940
-0.019823
-0.020802
-0.022750
-0.025460
-0.028719
-0.032396
-0.036501
-0.042725
0.446472
0.444981
0.440722
0.433552
0.423039
0.408427
0.388657
0.362432
0.328367
0.285258
0.232516
0.170777
0.102615
0.032877
-0.031911
-0.088189
-0.135127
-0.172647
-0.200329
-0.217565
-0.223915
-0.219850
-0.206583
-0.185942
-0.160067
-0.131094
-0.100913
-0.071043
-0.042585
-0.016260
0.007522
0.028554
0.046731
0.061098
0.070759
0.074801
0.072576
0.063956
0.049547
0.030808
0.010021
-0.010005
-0.026869
-0.039621
-0.048437
-0.053982
-0.057171
-0.058759
-0.059067
-0.057909
-0.054812
-0.049436
-0.041886
-0.032700
-0.022603
-0.012380
-0.002644
0.006118
0.013719
0.020068
0.025178
0.029147
0.032157
0.034471
0.036340
0.038001
0.039594
0.041071
0.042176
0.042466
0.041373
0.038356
0.033046
0.025474
0.016142
0.005847
-0.004215
-0.013257
-0.021139
-0.027842
-0.033245
-0.037155
-0.039471
-0.040259
-0.039679
-0.037935
-0.035298
-0.032147
-0.028893
-0.025818
-0.023517
-0.022207
-0.021963
-0.022779
-0.024508
-0.026925
-0.029794
-0.032928
-0.036231
-0.040688
0.438291
0.436287
0.430868
0.422184
0.410027
0.393873
0.372968
0.346436
0.313424
0.273311
0.226005
0.172297
0.114169
0.054821
-0.001871
-0.052974
-0.096834
-0.132532
-0.159453
-0.177214
-0.185459
-0.184768
-0.176217
-0.161291
-0.141684
-0.119079
-0.094975
-0.070582
-0.046793
-0.024204
-0.003188
0.016017
0.033104
0.047171
0.057562
0.063567
0.064634
0.060606
0.051925
0.039730
0.025712
0.011677
-0.001314
-0.012104
-0.020929
-0.028419
-0.035304
-0.042040
-0.048463
-0.053623
-0.056086
-0.054740
-0.049493
-0.041195
-0.030915
-0.019963
-0.009055
0.000885
0.009673
0.017203
0.023429
0.028458
0.032474
0.035714
0.038425
0.040820
0.043021
0.044980
0.046460
0.047041
0.046128
0.043180
0.037772
0.029745
0.020015
0.009981
0.000521
-0.008065
-0.015991
-0.023432
-0.030122
-0.035475
-0.039050
-0.040806
-0.040925
-0.039602
-0.037012
-0.033680
-0.030442
-0.027529
-0.025131
-0.023661
-0.023322
-0.024100
-0.025791
-0.028105
-0.030726
-0.033377
-0.035834
-0.037985
0.433843
0.430952
0.424115
0.413962
0.400449
0.383168
0.361547
0.334972
0.302910
0.265065
0.221573
0.173212
0.121542
0.068862
0.017858
-0.029076
-0.070151
-0.104114
-0.130248
-0.148148
-0.157608
-0.159201
-0.153913
-0.143032
-0.127981
-0.110142
-0.090729
-0.070700
-0.050745
-0.031316
-0.012675
0.005066
0.021545
0.035788
0.047231
0.055198
0.059126
0.058781
0.054469
0.047139
0.038142
0.028002
0.018319
0.009375
0.000842
-0.007943
-0.017671
-0.028680
-0.040532
-0.051615
-0.059304
-0.061291
-0.057275
-0.049006
-0.037511
-0.025684
-0.014043
-0.002915
0.007044
0.015623
0.022798
0.028682
0.033465
0.037378
0.040661
0.043528
0.046129
0.048424
0.050191
0.051050
0.050109
0.046673
0.040387
0.031658
0.021430
0.011190
0.002026
-0.005992
-0.013579
-0.021292
-0.028810
-0.035105
-0.039269
-0.041129
-0.041051
-0.039706
-0.037466
-0.034514
-0.031123
-0.028046
-0.025637
-0.024209
-0.023892
-0.024784
-0.026628
-0.029052
-0.031642
-0.034023
-0.035914
-0.036267
0.434794
0.429458
0.420468
0.408727
0.394037
0.375905
0.353791
0.327231
0.295869
0.259576
0.218582
0.173612
0.125957
0.077427
0.030127
-0.013901
-0.052909
-0.085403
-0.110952
-0.128802
-0.138975
-0.142018
-0.138852
-0.130639
-0.118633
-0.104030
-0.087854
-0.070897
-0.053713
-0.036668
-0.019985
-0.003644
0.012518
0.027268
0.039994
0.049835
0.056078
0.058361
0.056878
0.052669
0.046385
0.039020
0.031461
0.023730
0.015427
0.005903
-0.005470
-0.018994
-0.034252
-0.049532
-0.061453
-0.066031
-0.061534
-0.052459
-0.041645
-0.028919
-0.016150
-0.004169
0.006529
0.015750
0.023493
0.029877
0.035089
0.039345
0.042864
0.045873
0.048638
0.051121
0.052919
0.053434
0.052231
0.048555
0.041830
0.032234
0.020942
0.009889
0.000637
-0.006693
-0.013235
-0.020077
-0.027202
-0.033591
-0.038130
-0.040384
-0.040695
-0.039429
-0.037073
-0.034171
-0.031009
-0.028024
-0.025661
-0.024347
-0.024291
-0.025329
-0.027295
-0.029831
-0.032467
-0.034751
-0.036404
-0.036780
0.445639
0.431466
0.419368
0.406247
0.390708
0.371997
0.349595
0.323062
0.292110
0.256673
0.216998
0.173756
0.128093
0.081597
0.036124
-0.006465
-0.044577
-0.077100
-0.102492
-0.120354
-0.130843
-0.134508
-0.132230
-0.125108
-0.114316
-0.100970
-0.086025
-0.070215
-0.054061
-0.037916
-0.022044
-0.006718
0.008031
0.023000
0.036615
0.047598
0.055044
0.058483
0.057954
0.053926
0.047959
0.041427
0.034558
0.027293
0.019236
0.009788
-0.001601
-0.015130
-0.030312
-0.045554
-0.057905
-0.063919
-0.062389
-0.053389
-0.041510
-0.028580
-0.015713
-0.003655
0.007141
0.016476
0.024340
0.030841
0.036148
0.040454
0.043953
0.046830
0.049191
0.051205
0.052657
0.052967
0.051559
0.047814
0.041282
0.032080
0.021170
0.010201
0.000658
-0.007081
-0.013750
-0.020230
-0.026665
-0.032421
-0.036687
-0.039041
-0.039582
-0.038642
-0.036639
-0.033954
-0.031031
-0.028345
-0.026260
-0.025070
-0.024976
-0.025931
-0.027748
-0.030095
-0.032542
-0.034668
-0.036174
-0.036889
