# vtk DataFile Version 3.0
Vector Field
ASCII
DATASET RECTILINEAR_GRID
DIMENSIONS 100 26 1
X_COORDINATES 100 double
0.050000 0.150000 0.250000 0.350000 0.450000 0.550000 0.650000 0.750000 0.850000 0.950000 1.050000 1.150000 1.250000 1.350000 1.450000 1.550000 1.650000 1.750000 1.850000 1.950000 2.050000 2.150000 2.250000 2.350000 2.450000 2.550000 2.650000 2.750000 2.850000 2.950000 3.050000 3.150000 3.250000 3.350000 3.450000 3.550000 3.650000 3.750000 3.850000 3.950000 4.050000 4.150000 4.250000 4.350000 4.450000 4.550000 4.650000 4.750000 4.850000 4.950000 5.050000 5.150000 5.250000 5.350000 5.450000 5.550000 5.650000 5.750000 5.850000 5.950000 6.050000 6.150000 6.250000 6.350000 6.450000 6.550000 6.650000 6.750000 6.850000 6.950000 7.050000 7.150000 7.250000 7.350000 7.450000 7.550000 7.650000 7.750000 7.850000 7.950000 8.050000 8.150000 8.250000 8.350000 8.450000 8.550000 8.650000 8.750000 8.850000 8.950000 9.050000 9.150000 9.250000 9.350000 9.450000 9.550000 9.650000 9.750000 9.850000 9.950000 
Y_COORDINATES 26 double
0.050000 0.150000 0.250000 0.350000 0.450000 0.550000 0.650000 0.750000 0.850000 0.950000 1.050000 1.150000 1.250000 1.350000 1.450000 1.550000 1.650000 1.750000 1.850000 1.950000 2.050000 2.150000 2.250000 2.350000 2.450000 2.550000 
Z_COORDINATES 1 double
0.0
POINT_DATA 2600
VECTORS Vektorfeld double
0.997690 0.002310 0.0
0.992974 0.002406 0.0
0.989588 0.000980 0.0
0.989680 -0.001071 0.0
0.994092 -0.003342 0.0
1.003003 -0.005569 0.0
1.016076 -0.007504 0.0
1.032481 -0.008901 0.0
1.050927 -0.009545 0.0
1.069794 -0.009322 0.0
1.087394 -0.008278 0.0
1.102277 -0.006605 0.0
1.113452 -0.004569 0.0
1.120459 -0.002439 0.0
1.123353 -0.000455 0.0
1.122644 0.001164 0.0
1.119053 0.002426 0.0
1.113315 0.003311 0.0
1.106152 0.003852 0.0
1.098161 0.004139 0.0
1.089700 0.004321 0.0
1.080790 0.004589 0.0
1.071046 0.005154 0.0
1.059688 0.006204 0.0
1.045641 0.007844 0.0
1.027729 0.010068 0.0
1.004897 0.012763 0.0
0.976399 0.015735 0.0
0.941913 0.018752 0.0
0.901579 0.021582 0.0
0.855983 0.024013 0.0
0.806103 0.025866 0.0
0.753237 0.027000 0.0
0.698930 0.027307 0.0
0.644903 0.026720 0.0
0.592972 0.025210 0.0
0.544961 0.022801 0.0
0.502578 0.019582 0.0
0.467288 0.015708 0.0
0.440251 0.011330 0.0
0.422482 0.006439 0.0
0.414911 0.001132 0.0
0.416774 -0.002995 0.0
0.424960 -0.005191 0.0
0.436020 -0.005869 0.0
0.447452 -0.005563 0.0
0.457689 -0.004674 0.0
0.465836 -0.003473 0.0
0.471455 -0.002146 0.0
0.474349 -0.000747 0.0
0.473968 0.001128 0.0
0.469211 0.003628 0.0
0.459146 0.006437 0.0
0.443513 0.009196 0.0
0.422867 0.011449 0.0
0.398821 0.012597 0.0
0.374183 0.012042 0.0
0.352513 0.009628 0.0
0.336866 0.006018 0.0
0.328368 0.002480 0.0
0.325775 0.000113 0.0
0.326475 -0.000813 0.0
0.328446 -0.001158 0.0
0.331173 -0.001568 0.0
0.334869 -0.002128 0.0
0.339718 -0.002722 0.0
0.345516 -0.003076 0.0
0.351788 -0.003196 0.0
0.358165 -0.003181 0.0
0.364405 -0.003059 0.0
0.370315 -0.002850 0.0
0.375741 -0.002576 0.0
0.380578 -0.002261 0.0
0.384762 -0.001923 0.0
0.388267 -0.001582 0.0
0.391104 -0.001255 0.0
0.393315 -0.000956 0.0
0.394965 -0.000694 0.0
0.396134 -0.000476 0.0
0.396913 -0.000303 0.0
0.397391 -0.000175 0.0
0.397655 -0.000089 0.0
0.397784 -0.000039 0.0
0.397841 -0.000018 0.0
0.397878 -0.000019 0.0
0.397928 -0.000032 0.0
0.398010 -0.000050 0.0
0.398128 -0.000067 0.0
0.398274 -0.000078 0.0
0.398431 -0.000079 0.0
0.398579 -0.000069 0.0
0.398700 -0.000051 0.0
0.398779 -0.000029 0.0
0.398818 -0.000010 0.0
0.398832 -0.000005 0.0
0.398864 -0.000027 0.0
0.398985 -0.000094 0.0
0.399303 -0.000224 0.0
0.399942 -0.000414 0.0
0.401370 -0.001014 0.0
1.002985 0.001635 0.0
1.011565 -0.000782 0.0
1.024798 -0.005679 0.0
1.042041 -0.011747 0.0
1.063200 -0.018238 0.0
1.088151 -0.024534 0.0
1.116514 -0.029975 0.0
1.147527 -0.033849 0.0
1.180000 -0.035515 0.0
1.212382 -0.034600 0.0
1.243036 -0.031254 0.0
1.270605 -0.026083 0.0
1.294238 -0.019899 0.0
1.313618 -0.013496 0.0
1.328855 -0.007529 0.0
1.340293 -0.002491 0.0
1.348536 0.001429 0.0
1.354421 0.004161 0.0
1.358777 0.005809 0.0
1.362301 0.006650 0.0
1.365437 0.007135 0.0
1.368258 0.007864 0.0
1.370367 0.009514 0.0
1.370890 0.012679 0.0
1.368604 0.017702 0.0
1.362165 0.024561 0.0
1.350378 0.032889 0.0
1.332404 0.042080 0.0
1.307876 0.051422 0.0
1.276920 0.060202 0.0
1.240125 0.067784 0.0
1.198468 0.073633 0.0
1.153236 0.077330 0.0
1.105956 0.078564 0.0
1.058317 0.077130 0.0
1.012096 0.072952 0.0
0.969069 0.066099 0.0
0.930911 0.056825 0.0
0.899091 0.045574 0.0
0.874707 0.032885 0.0
0.858058 0.019300 0.0
0.848159 0.005741 0.0
0.844101 -0.005409 0.0
0.845752 -0.012614 0.0
0.852678 -0.016432 0.0
0.863950 -0.017705 0.0
0.878250 -0.017069 0.0
0.893895 -0.014871 0.0
0.908782 -0.011255 0.0
0.920529 -0.006279 0.0
0.927434 0.000135 0.0
0.928892 0.007920 0.0
0.924669 0.016433 0.0
0.914855 0.024647 0.0
0.900117 0.031383 0.0
0.881480 0.035347 0.0
0.859902 0.035508 0.0
0.835883 0.031851 0.0
0.809489 0.025836 0.0
0.780915 0.019733 0.0
0.751301 0.015066 0.0
0.723258 0.011578 0.0
0.699979 0.007758 0.0
0.683861 0.002907 0.0
0.675784 -0.002221 0.0
0.674445 -0.006140 0.0
0.677475 -0.008486 0.0
0.683209 -0.009791 0.0
0.690817 -0.010571 0.0
0.699799 -0.010891 0.0
0.709665 -0.010793 0.0
0.719965 -0.010360 0.0
0.730308 -0.009658 0.0
0.740347 -0.008749 0.0
0.749794 -0.007707 0.0
0.758434 -0.006607 0.0
0.766135 -0.005515 0.0
0.772842 -0.004492 0.0
0.778578 -0.003583 0.0
0.783428 -0.002824 0.0
0.787529 -0.002233 0.0
0.791048 -0.001814 0.0
0.794162 -0.001557 0.0
0.797044 -0.001441 0.0
0.799848 -0.001436 0.0
0.802693 -0.001510 0.0
0.805664 -0.001625 0.0
0.808804 -0.001750 0.0
0.812118 -0.001855 0.0
0.815576 -0.001918 0.0
0.819124 -0.001926 0.0
0.822687 -0.001877 0.0
0.826184 -0.001779 0.0
0.829535 -0.001649 0.0
0.832672 -0.001516 0.0
0.835543 -0.001419 0.0
0.838129 -0.001409 0.0
0.840454 -0.001554 0.0
0.842658 -0.001927 0.0
0.844943 -0.003214 0.0
1.001896 -0.003246 0.0
1.008652 -0.011237 0.0
1.020904 -0.020710 0.0
1.038102 -0.031157 0.0
1.060101 -0.041986 0.0
1.086806 -0.052442 0.0
1.117903 -0.061526 0.0
1.152613 -0.068021 0.0
1.189513 -0.070717 0.0
1.226497 -0.068766 0.0
1.261241 -0.062486 0.0
1.291949 -0.053126 0.0
1.317678 -0.042218 0.0
1.338259 -0.031138 0.0
1.354071 -0.020936 0.0
1.365852 -0.012303 0.0
1.374530 -0.005679 0.0
1.381100 -0.001185 0.0
1.386567 0.001332 0.0
1.391863 0.002309 0.0
1.397710 0.002493 0.0
1.404467 0.002929 0.0
1.411965 0.004842 0.0
1.419419 0.009372 0.0
1.425505 0.017209 0.0
1.428665 0.028333 0.0
1.427482 0.042086 0.0
1.420937 0.057402 0.0
1.408514 0.073052 0.0
1.390194 0.087848 0.0
1.366375 0.100752 0.0
1.337780 0.110917 0.0
1.305370 0.117688 0.0
1.270270 0.120586 0.0
1.233714 0.119304 0.0
1.196984 0.113730 0.0
1.161348 0.103984 0.0
1.127981 0.090465 0.0
1.097867 0.073868 0.0
1.071665 0.055176 0.0
1.049601 0.035722 0.0
1.031557 0.017261 0.0
1.017482 0.001205 0.0
1.008064 -0.011461 0.0
1.004183 -0.020629 0.0
1.006108 -0.026705 0.0
1.013677 -0.029937 0.0
1.026264 -0.030233 0.0
1.042733 -0.027249 0.0
1.061406 -0.020706 0.0
1.080015 -0.010951 0.0
1.096384 0.001180 0.0
1.109216 0.014563 0.0
1.117760 0.027786 0.0
1.121474 0.039268 0.0
1.119993 0.047579 0.0
1.112998 0.051849 0.0
1.100279 0.052249 0.0
1.082115 0.049997 0.0
1.059694 0.046568 0.0
1.034989 0.042550 0.0
1.009851 0.037275 0.0
0.985082 0.030110 0.0
0.960299 0.021456 0.0
0.934929 0.012676 0.0
0.910172 0.005058 0.0
0.888911 -0.001453 0.0
0.873410 -0.007058 0.0
0.863888 -0.011389 0.0
0.859130 -0.014296 0.0
0.857861 -0.015986 0.0
0.859154 -0.016760 0.0
0.862308 -0.016754 0.0
0.866708 -0.016091 0.0
0.871815 -0.014919 0.0
0.877177 -0.013399 0.0
0.882439 -0.011685 0.0
0.887332 -0.009923 0.0
0.891691 -0.008246 0.0
0.895446 -0.006766 0.0
0.898619 -0.005565 0.0
0.901308 -0.004690 0.0
0.903667 -0.004154 0.0
0.905880 -0.003939 0.0
0.908134 -0.003997 0.0
0.910603 -0.004263 0.0
0.913422 -0.004661 0.0
0.916680 -0.005112 0.0
0.920413 -0.005540 0.0
0.924607 -0.005885 0.0
0.929201 -0.006101 0.0
0.934100 -0.006165 0.0
0.939186 -0.006075 0.0
0.944329 -0.005848 0.0
0.949399 -0.005524 0.0
0.954274 -0.005158 0.0
0.958846 -0.004827 0.0
0.963021 -0.004637 0.0
0.966713 -0.004739 0.0
0.969654 -0.005629 0.0
1.001517 -0.006659 0.0
1.007377 -0.020439 0.0
1.018756 -0.035139 0.0
1.035554 -0.050724 0.0
1.057934 -0.066798 0.0
1.086140 -0.082541 0.0
1.120204 -0.096588 0.0
1.159522 -0.106988 0.0
1.202455 -0.111582 0.0
1.245816 -0.108245 0.0
1.285797 -0.097732 0.0
1.319813 -0.082604 0.0
1.346915 -0.065571 0.0
1.367313 -0.048764 0.0
1.381851 -0.033660 0.0
1.391681 -0.021190 0.0
1.398085 -0.011874 0.0
1.402397 -0.005871 0.0
1.405953 -0.003007 0.0
1.410039 -0.002734 0.0
1.415770 -0.004042 0.0
1.423850 -0.005372 0.0
1.434221 -0.004727 0.0
1.445843 -0.000135 0.0
1.456848 0.009627 0.0
1.465070 0.024534 0.0
1.468674 0.043463 0.0
1.466539 0.064705 0.0
1.458296 0.086414 0.0
1.444192 0.106911 0.0
1.424871 0.124830 0.0
1.401173 0.139131 0.0
1.374006 0.149052 0.0
1.344268 0.154060 0.0
1.312826 0.153829 0.0
1.280497 0.148263 0.0
1.248050 0.137534 0.0
1.216186 0.122146 0.0
1.185524 0.102963 0.0
1.156594 0.081213 0.0
1.129894 0.058451 0.0
1.106067 0.036403 0.0
1.085910 0.016296 0.0
1.070249 -0.001474 0.0
1.060042 -0.016528 0.0
1.056128 -0.028818 0.0
1.058900 -0.038165 0.0
1.068300 -0.043992 0.0
1.083791 -0.045450 0.0
1.104402 -0.041788 0.0
1.128741 -0.032816 0.0
1.154773 -0.019356 0.0
1.179948 -0.002908 0.0
1.202041 0.014619 0.0
1.219647 0.031116 0.0
1.231838 0.045021 0.0
1.237888 0.055351 0.0
1.237411 0.061942 0.0
1.230596 0.065282 0.0
1.218296 0.066005 0.0
1.201742 0.064373 0.0
1.182027 0.060304 0.0
1.159877 0.054001 0.0
1.135960 0.046264 0.0
1.111247 0.037951 0.0
1.086599 0.029188 0.0
1.062180 0.020099 0.0
1.037799 0.011271 0.0
1.014138 0.003464 0.0
0.992872 -0.003125 0.0
0.975437 -0.008453 0.0
0.962186 -0.012334 0.0
0.952588 -0.014736 0.0
0.945892 -0.015814 0.0
0.941400 -0.015810 0.0
0.938508 -0.014979 0.0
0.936702 -0.013560 0.0
0.935552 -0.011792 0.0
0.934733 -0.009917 0.0
0.934038 -0.008155 0.0
0.933376 -0.006687 0.0
0.932763 -0.005643 0.0
0.932293 -0.005091 0.0
0.932115 -0.005036 0.0
0.932391 -0.005431 0.0
0.933278 -0.006184 0.0
0.934894 -0.007175 0.0
0.937304 -0.008267 0.0
0.940516 -0.009330 0.0
0.944476 -0.010249 0.0
0.949080 -0.010935 0.0
0.954186 -0.011337 0.0
0.959632 -0.011434 0.0
0.965241 -0.011241 0.0
0.970842 -0.010802 0.0
0.976269 -0.010183 0.0
0.981370 -0.009475 0.0
0.985994 -0.008789 0.0
0.989976 -0.008261 0.0
0.993030 -0.008103 0.0
1.001327 -0.009503 0.0
1.006599 -0.028728 0.0
1.017186 -0.048817 0.0
1.033415 -0.070072 0.0
1.055945 -0.092359 0.0
1.085661 -0.114902 0.0
1.123354 -0.135984 0.0
1.169032 -0.152588 0.0
1.221249 -0.161131 0.0
1.274599 -0.155408 0.0
1.321903 -0.137855 0.0
1.359498 -0.114092 0.0
1.387039 -0.088724 0.0
1.405723 -0.064693 0.0
1.417210 -0.043757 0.0
1.423223 -0.026937 0.0
1.425454 -0.014763 0.0
1.425561 -0.007401 0.0
1.425211 -0.004684 0.0
1.426113 -0.006045 0.0
1.429966 -0.010315 0.0
1.438161 -0.015374 0.0
1.451149 -0.018084 0.0
1.467734 -0.014985 0.0
1.484922 -0.003718 0.0
1.498961 0.015619 0.0
1.506942 0.040793 0.0
1.507450 0.069003 0.0
1.500319 0.097490 0.0
1.486270 0.123986 0.0
1.466477 0.146868 0.0
1.442209 0.165059 0.0
1.414622 0.177878 0.0
1.384682 0.184911 0.0
1.353157 0.185945 0.0
1.320658 0.180974 0.0
1.287690 0.170238 0.0
1.254709 0.154287 0.0
1.222185 0.134008 0.0
1.190663 0.110618 0.0
1.160844 0.085565 0.0
1.133638 0.060323 0.0
1.110105 0.036066 0.0
1.091179 0.013343 0.0
1.077590 -0.007549 0.0
1.069938 -0.026231 0.0
1.068593 -0.042179 0.0
1.073689 -0.054475 0.0
1.085197 -0.061967 0.0
1.102978 -0.063664 0.0
1.126766 -0.059068 0.0
1.155885 -0.048256 0.0
1.188699 -0.031997 0.0
1.222187 -0.011873 0.0
1.252417 0.009773 0.0
1.276516 0.030074 0.0
1.293568 0.047196 0.0
1.303491 0.060651 0.0
1.306530 0.070350 0.0
1.303308 0.076458 0.0
1.294643 0.079138 0.0
1.281332 0.078564 0.0
1.264094 0.075128 0.0
1.243680 0.069466 0.0
1.220925 0.062219 0.0
1.196616 0.053876 0.0
1.171464 0.044982 0.0
1.146204 0.036029 0.0
1.121420 0.027152 0.0
1.097322 0.018553 0.0
1.073963 0.010663 0.0
1.051778 0.003985 0.0
1.031585 -0.001264 0.0
1.014044 -0.005050 0.0
0.999370 -0.007408 0.0
0.987325 -0.008445 0.0
0.977432 -0.008396 0.0
0.969203 -0.007577 0.0
0.962230 -0.006340 0.0
0.956222 -0.005028 0.0
0.951012 -0.003942 0.0
0.946547 -0.003311 0.0
0.942867 -0.003275 0.0
0.940074 -0.003879 0.0
0.938289 -0.005080 0.0
0.937624 -0.006757 0.0
0.938147 -0.008741 0.0
0.939870 -0.010834 0.0
0.942732 -0.012838 0.0
0.946612 -0.014581 0.0
0.951336 -0.015931 0.0
0.956694 -0.016807 0.0
0.962464 -0.017178 0.0
0.968419 -0.017062 0.0
0.974348 -0.016510 0.0
0.980052 -0.015606 0.0
0.985352 -0.014452 0.0
0.990081 -0.013164 0.0
0.994072 -0.011859 0.0
0.997125 -0.010611 0.0
1.001137 -0.011966 0.0
1.005711 -0.036112 0.0
1.015114 -0.061423 0.0
1.030052 -0.088634 0.0
1.051793 -0.118069 0.0
1.082184 -0.149298 0.0
1.123424 -0.180521 0.0
1.177085 -0.207391 0.0
1.243665 -0.225124 0.0
1.312375 -0.213474 0.0
1.368008 -0.182726 0.0
1.406835 -0.145644 0.0
1.431282 -0.109159 0.0
1.444716 -0.076377 0.0
1.449952 -0.048796 0.0
1.449259 -0.027218 0.0
1.444572 -0.012026 0.0
1.437672 -0.003345 0.0
1.430352 -0.001070 0.0
1.424602 -0.004811 0.0
1.422812 -0.013612 0.0
1.427582 -0.025042 0.0
1.440686 -0.034508 0.0
1.461661 -0.036120 0.0
1.486996 -0.025106 0.0
1.510454 -0.000489 0.0
1.526138 0.033236 0.0
1.531507 0.070684 0.0
1.526728 0.107719 0.0
1.513198 0.141336 0.0
1.492770 0.169739 0.0
1.467231 0.191996 0.0
1.438065 0.207694 0.0
1.406407 0.216694 0.0
1.373081 0.219013 0.0
1.338684 0.214802 0.0
1.303677 0.204386 0.0
1.268478 0.188318 0.0
1.233567 0.167413 0.0
1.199567 0.142735 0.0
1.167312 0.115522 0.0
1.137821 0.087063 0.0
1.112120 0.058559 0.0
1.090881 0.031015 0.0
1.074079 0.005169 0.0
1.061231 -0.018448 0.0
1.052019 -0.039403 0.0
1.046672 -0.056999 0.0
1.046051 -0.070329 0.0
1.051524 -0.078557 0.0
1.064727 -0.081166 0.0
1.087052 -0.077600 0.0
1.118876 -0.067291 0.0
1.158929 -0.050120 0.0
1.203778 -0.027059 0.0
1.247340 -0.000755 0.0
1.283229 0.025084 0.0
1.309015 0.047055 0.0
1.325449 0.064474 0.0
1.333635 0.077371 0.0
1.334618 0.085908 0.0
1.329363 0.090360 0.0
1.318758 0.091175 0.0
1.303656 0.088936 0.0
1.284902 0.084259 0.0
1.263312 0.077734 0.0
1.239666 0.069922 0.0
1.214700 0.061314 0.0
1.189056 0.052295 0.0
1.163288 0.043276 0.0
1.137936 0.034651 0.0
1.113467 0.026651 0.0
1.090204 0.019526 0.0
1.068359 0.013547 0.0
1.048095 0.008933 0.0
1.029591 0.005762 0.0
1.012970 0.003911 0.0
0.998212 0.003104 0.0
0.985196 0.002967 0.0
0.973783 0.003086 0.0
0.963870 0.003067 0.0
0.955426 0.002590 0.0
0.948483 0.001447 0.0
0.943113 -0.000438 0.0
0.939393 -0.003016 0.0
0.937374 -0.006136 0.0
0.937059 -0.009572 0.0
0.938387 -0.013053 0.0
0.941216 -0.016310 0.0
0.945335 -0.019107 0.0
0.950480 -0.021272 0.0
0.956360 -0.022704 0.0
0.962684 -0.023374 0.0
0.969171 -0.023310 0.0
0.975568 -0.022588 0.0
0.981651 -0.021315 0.0
0.987224 -0.019616 0.0
0.992116 -0.017621 0.0
0.996178 -0.015456 0.0
0.999261 -0.013149 0.0
1.000863 -0.013966 0.0
1.004366 -0.042189 0.0
1.011733 -0.072115 0.0
1.023947 -0.105093 0.0
1.042854 -0.142259 0.0
1.071493 -0.184138 0.0
1.114318 -0.229746 0.0
1.176312 -0.273821 0.0
1.265173 -0.314133 0.0
1.355496 -0.283498 0.0
1.414195 -0.227034 0.0
1.444899 -0.170867 0.0
1.457979 -0.121462 0.0
1.460066 -0.079594 0.0
1.454682 -0.045432 0.0
1.443993 -0.019199 0.0
1.429431 -0.000796 0.0
1.412297 0.009458 0.0
1.394327 0.011416 0.0
1.377453 0.005327 0.0
1.363896 -0.008403 0.0
1.357557 -0.028682 0.0
1.362981 -0.049396 0.0
1.382118 -0.061344 0.0
1.413091 -0.056191 0.0
1.449490 -0.029261 0.0
1.480290 0.015522 0.0
1.497735 0.065584 0.0
1.501613 0.113720 0.0
1.494357 0.156123 0.0
1.478642 0.191095 0.0
1.456699 0.218121 0.0
1.430196 0.237237 0.0
1.400329 0.248676 0.0
1.367960 0.252725 0.0
1.333739 0.249706 0.0
1.298212 0.240017 0.0
1.261907 0.224190 0.0
1.225436 0.202924 0.0
1.189570 0.177090 0.0
1.155284 0.147708 0.0
1.123678 0.115974 0.0
1.095661 0.083366 0.0
1.071367 0.051743 0.0
1.049581 0.023029 0.0
1.027863 -0.001741 0.0
1.004228 -0.023263 0.0
0.979376 -0.042941 0.0
0.956809 -0.061199 0.0
0.941131 -0.077482 0.0
0.936627 -0.090941 0.0
0.946161 -0.099683 0.0
0.970536 -0.101408 0.0
1.008788 -0.094308 0.0
1.058674 -0.077606 0.0
1.116788 -0.051883 0.0
1.177291 -0.020179 0.0
1.231254 0.012569 0.0
1.272338 0.041442 0.0
1.300500 0.064056 0.0
1.317844 0.080897 0.0
1.326038 0.092432 0.0
1.326491 0.099256 0.0
1.320426 0.102022 0.0
1.308946 0.101406 0.0
1.293059 0.098063 0.0
1.273688 0.092610 0.0
1.251678 0.085603 0.0
1.227788 0.077539 0.0
1.202706 0.068881 0.0
1.177058 0.060047 0.0
1.151386 0.051395 0.0
1.126148 0.043282 0.0
1.101736 0.036049 0.0
1.078482 0.029951 0.0
1.056625 0.025105 0.0
1.036317 0.021498 0.0
1.017640 0.018953 0.0
1.000636 0.017137 0.0
0.985344 0.015622 0.0
0.971821 0.013966 0.0
0.960164 0.011792 0.0
0.950500 0.008853 0.0
0.942960 0.005066 0.0
0.937651 0.000509 0.0
0.934623 -0.004612 0.0
0.933839 -0.009996 0.0
0.935161 -0.015279 0.0
0.938349 -0.020102 0.0
0.943080 -0.024165 0.0
0.948985 -0.027263 0.0
0.955681 -0.029290 0.0
0.962803 -0.030234 0.0
0.970022 -0.030155 0.0
0.977050 -0.029167 0.0
0.983643 -0.027412 0.0
0.989600 -0.025048 0.0
0.994753 -0.022234 0.0
0.998968 -0.019120 0.0
1.002109 -0.015709 0.0
1.000463 -0.015293 0.0
1.002353 -0.046256 0.0
1.006470 -0.079533 0.0
1.013813 -0.117231 0.0
1.026477 -0.161692 0.0
1.048463 -0.215330 0.0
1.087000 -0.279915 0.0
1.153338 -0.351985 0.0
1.274114 -0.445606 0.0
1.386377 -0.354612 0.0
1.425040 -0.253283 0.0
1.426444 -0.176727 0.0
1.415415 -0.117653 0.0
1.399608 -0.069681 0.0
1.380632 -0.030985 0.0
1.357825 -0.000150 0.0
1.330440 0.022102 0.0
1.299500 0.034634 0.0
1.266844 0.036866 0.0
1.234665 0.028929 0.0
1.204937 0.011281 0.0
1.179378 -0.016467 0.0
1.164097 -0.051755 0.0
1.167422 -0.081447 0.0
1.193044 -0.092683 0.0
1.238750 -0.074873 0.0
1.294023 -0.024940 0.0
1.340410 0.042214 0.0
1.368533 0.105089 0.0
1.381862 0.158680 0.0
1.384090 0.202024 0.0
1.377765 0.235459 0.0
1.364538 0.259630 0.0
1.345548 0.275141 0.0
1.321689 0.282489 0.0
1.293751 0.282100 0.0
1.262496 0.274405 0.0
1.228706 0.259896 0.0
1.193238 0.239158 0.0
1.157064 0.212896 0.0
1.121259 0.181992 0.0
1.086812 0.147743 0.0
1.054111 0.112315 0.0
1.022163 0.079036 0.0
0.988217 0.051466 0.0
0.949001 0.030756 0.0
0.903342 0.013533 0.0
0.854509 -0.006053 0.0
0.810742 -0.031753 0.0
0.781656 -0.062163 0.0
0.772140 -0.092241 0.0
0.781306 -0.117083 0.0
0.806123 -0.133201 0.0
0.843838 -0.138482 0.0
0.892432 -0.131912 0.0
0.950193 -0.113453 0.0
1.015173 -0.084091 0.0
1.084251 -0.046562 0.0
1.150461 -0.006722 0.0
1.204914 0.029604 0.0
1.244480 0.058439 0.0
1.271194 0.079983 0.0
1.287206 0.095240 0.0
1.294220 0.105089 0.0
1.293679 0.110360 0.0
1.286848 0.111828 0.0
1.274856 0.110209 0.0
1.258719 0.106153 0.0
1.239349 0.100249 0.0
1.217570 0.093033 0.0
1.194119 0.084995 0.0
1.169652 0.076586 0.0
1.144741 0.068240 0.0
1.119884 0.060359 0.0
1.095504 0.053275 0.0
1.071938 0.047202 0.0
1.049448 0.042200 0.0
1.028240 0.038136 0.0
1.008501 0.034695 0.0
0.990425 0.031432 0.0
0.974236 0.027868 0.0
0.960191 0.023592 0.0
0.948554 0.018354 0.0
0.939556 0.012102 0.0
0.933356 0.004981 0.0
0.929999 -0.002700 0.0
0.929400 -0.010525 0.0
0.931325 -0.017997 0.0
0.935403 -0.024650 0.0
0.941179 -0.030124 0.0
0.948167 -0.034198 0.0
0.955904 -0.036788 0.0
0.963969 -0.037924 0.0
0.972003 -0.037717 0.0
0.979704 -0.036333 0.0
0.986829 -0.033964 0.0
0.993183 -0.030807 0.0
0.998609 -0.027054 0.0
1.002984 -0.022889 0.0
1.006166 -0.018264 0.0
0.999933 -0.015689 0.0
0.999653 -0.047471 0.0
0.999223 -0.082004 0.0
0.999213 -0.122093 0.0
1.001139 -0.171420 0.0
1.008642 -0.235092 0.0
1.030252 -0.320299 0.0
1.084956 -0.432643 0.0
1.235522 -0.636289 0.0
1.343645 -0.384314 0.0
1.307982 -0.226581 0.0
1.250036 -0.146888 0.0
1.205391 -0.091819 0.0
1.171591 -0.045909 0.0
1.139988 -0.004178 0.0
1.103721 0.032117 0.0
1.061332 0.059610 0.0
1.013168 0.076230 0.0
0.960194 0.080900 0.0
0.904354 0.072915 0.0
0.849831 0.051546 0.0
0.802824 0.015833 0.0
0.770089 -0.036039 0.0
0.763499 -0.093897 0.0
0.792096 -0.134450 0.0
0.852131 -0.138846 0.0
0.934727 -0.098836 0.0
1.025677 -0.021226 0.0
1.102365 0.063718 0.0
1.155877 0.133209 0.0
1.192665 0.188480 0.0
1.216359 0.231635 0.0
1.228853 0.264187 0.0
1.231370 0.287057 0.0
1.224972 0.300830 0.0
1.210726 0.305943 0.0
1.189727 0.302816 0.0
1.163089 0.291913 0.0
1.131915 0.273784 0.0
1.097187 0.249172 0.0
1.059368 0.219341 0.0
1.017500 0.186710 0.0
0.968393 0.155155 0.0
0.907945 0.128593 0.0
0.835906 0.107895 0.0
0.760269 0.089179 0.0
0.694971 0.066066 0.0
0.651638 0.033581 0.0
0.633021 -0.009003 0.0
0.634029 -0.056835 0.0
0.647972 -0.101995 0.0
0.670566 -0.139088 0.0
0.699972 -0.165420 0.0
0.735761 -0.179767 0.0
0.778124 -0.181583 0.0
0.827336 -0.170757 0.0
0.883330 -0.147761 0.0
0.945320 -0.113960 0.0
1.011555 -0.071768 0.0
1.077928 -0.026176 0.0
1.136473 0.016107 0.0
1.181537 0.050536 0.0
1.213611 0.076600 0.0
1.234738 0.095589 0.0
1.246558 0.108580 0.0
1.250478 0.116518 0.0
1.247743 0.120245 0.0
1.239474 0.120522 0.0
1.226686 0.118036 0.0
1.210298 0.113413 0.0
1.191135 0.107228 0.0
1.169936 0.100020 0.0
1.147349 0.092305 0.0
1.123940 0.084560 0.0
1.100195 0.077199 0.0
1.076526 0.070513 0.0
1.053289 0.064615 0.0
1.030822 0.059395 0.0
1.009475 0.054523 0.0
0.989637 0.049518 0.0
0.971747 0.043860 0.0
0.956265 0.037127 0.0
0.943624 0.029098 0.0
0.934167 0.019812 0.0
0.928088 0.009550 0.0
0.925398 -0.001222 0.0
0.925898 -0.011904 0.0
0.929181 -0.021827 0.0
0.934700 -0.030418 0.0
0.941858 -0.037289 0.0
0.950082 -0.042245 0.0
0.958863 -0.045258 0.0
0.967772 -0.046427 0.0
0.976459 -0.045934 0.0
0.984646 -0.044005 0.0
0.992115 -0.040887 0.0
0.998695 -0.036819 0.0
1.004252 -0.032025 0.0
1.008675 -0.026715 0.0
1.011808 -0.020752 0.0
0.999325 -0.014947 0.0
0.996537 -0.045145 0.0
0.990708 -0.078070 0.0
0.981476 -0.116786 0.0
0.968569 -0.165746 0.0
0.952483 -0.232184 0.0
0.936832 -0.329166 0.0
0.937042 -0.478691 0.0
1.038180 -0.841946 0.0
1.046632 -0.190375 0.0
0.874031 -0.097241 0.0
0.745217 -0.079308 0.0
0.682978 -0.052515 0.0
0.644186 -0.012621 0.0
0.604359 0.033965 0.0
0.557308 0.077292 0.0
0.501676 0.112456 0.0
0.438032 0.135192 0.0
0.370313 0.142632 0.0
0.305984 0.131352 0.0
0.256702 0.096914 0.0
0.235633 0.038542 0.0
0.251069 -0.041448 0.0
0.298790 -0.129619 0.0
0.368818 -0.197354 0.0
0.454596 -0.221756 0.0
0.552743 -0.196671 0.0
0.663269 -0.124868 0.0
0.778456 -0.024516 0.0
0.876936 0.069452 0.0
0.950685 0.141700 0.0
1.006778 0.198627 0.0
1.047918 0.243560 0.0
1.075291 0.277795 0.0
1.089895 0.301886 0.0
1.092840 0.316189 0.0
1.085326 0.321084 0.0
1.068537 0.317073 0.0
1.043427 0.304908 0.0
1.010267 0.285936 0.0
0.967926 0.262736 0.0
0.913743 0.239366 0.0
0.845726 0.219623 0.0
0.767085 0.203216 0.0
0.688538 0.183859 0.0
0.624047 0.153343 0.0
0.583208 0.108040 0.0
0.567420 0.050729 0.0
0.571690 -0.011804 0.0
0.588289 -0.071642 0.0
0.610775 -0.123617 0.0
0.635992 -0.165277 0.0
0.663025 -0.195670 0.0
0.692209 -0.214490 0.0
0.724567 -0.221581 0.0
0.761383 -0.216787 0.0
0.803769 -0.200111 0.0
0.852238 -0.172069 0.0
0.906402 -0.134059 0.0
0.964795 -0.088650 0.0
1.024562 -0.039730 0.0
1.079648 0.006223 0.0
1.124154 0.044333 0.0
1.157142 0.073741 0.0
1.180046 0.095704 0.0
1.194186 0.111335 0.0
1.200753 0.121597 0.0
1.200841 0.127352 0.0
1.195458 0.129377 0.0
1.185530 0.128388 0.0
1.171896 0.125048 0.0
1.155311 0.119984 0.0
1.136443 0.113796 0.0
1.115878 0.107043 0.0
1.094130 0.100209 0.0
1.071666 0.093637 0.0
1.048938 0.087455 0.0
1.026428 0.081531 0.0
1.004685 0.075479 0.0
0.984332 0.068753 0.0
0.966050 0.060798 0.0
0.950511 0.051210 0.0
0.938296 0.039871 0.0
0.929804 0.026988 0.0
0.925193 0.013063 0.0
0.924352 -0.001203 0.0
0.926876 -0.014946 0.0
0.932125 -0.027317 0.0
0.939373 -0.037694 0.0
0.947928 -0.045727 0.0
0.957195 -0.051299 0.0
0.966688 -0.054478 0.0
0.976024 -0.055453 0.0
0.984913 -0.054484 0.0
0.993136 -0.051864 0.0
1.000527 -0.047888 0.0
1.006962 -0.042833 0.0
1.012337 -0.036944 0.0
1.016564 -0.030446 0.0
1.019479 -0.023068 0.0
0.998749 -0.013021 0.0
0.993575 -0.039110 0.0
0.982553 -0.067253 0.0
0.964195 -0.100012 0.0
0.935757 -0.141176 0.0
0.892204 -0.197115 0.0
0.823642 -0.280022 0.0
0.710881 -0.415284 0.0
0.320154 -0.720620 0.0
-0.479958 0.251432 0.0
-0.479958 0.000000 0.0
-0.027471 -0.018788 0.0
-0.040892 -0.046059 0.0
0.003596 -0.024773 0.0
0.062053 0.027488 0.0
0.093440 0.099433 0.0
0.083350 0.156036 0.0
0.047990 0.190616 0.0
0.003174 0.199743 0.0
-0.036756 0.178499 0.0
-0.060630 0.122924 0.0
-0.061483 0.034454 0.0
-0.036934 -0.077345 0.0
0.009664 -0.188041 0.0
0.074320 -0.273616 0.0
0.154237 -0.311189 0.0
0.246736 -0.297883 0.0
0.352352 -0.239797 0.0
0.472052 -0.144474 0.0
0.597006 -0.034023 0.0
0.705797 0.062636 0.0
0.789789 0.137606 0.0
0.855147 0.198083 0.0
0.904165 0.246880 0.0
0.937771 0.284590 0.0
0.956875 0.311437 0.0
0.962440 0.327785 0.0
0.955263 0.334339 0.0
0.935577 0.332437 0.0
0.902630 0.324515 0.0
0.854933 0.314194 0.0
0.792389 0.304634 0.0
0.719870 0.294889 0.0
0.648569 0.277892 0.0
0.591803 0.244496 0.0
0.558129 0.190872 0.0
0.548207 0.121271 0.0
0.557110 0.044383 0.0
0.577643 -0.030262 0.0
0.603192 -0.095332 0.0
0.629621 -0.148841 0.0
0.654911 -0.190561 0.0
0.678395 -0.220904 0.0
0.700435 -0.240481 0.0
0.722244 -0.249755 0.0
0.745637 -0.248822 0.0
0.772641 -0.237467 0.0
0.804960 -0.215501 0.0
0.843462 -0.183291 0.0
0.887869 -0.142217 0.0
0.936742 -0.094805 0.0
0.987581 -0.044627 0.0
1.035589 0.002670 0.0
1.075696 0.042308 0.0
1.106443 0.073485 0.0
1.128588 0.097269 0.0
1.143024 0.114661 0.0
1.150652 0.126572 0.0
1.152348 0.133844 0.0
1.148939 0.137260 0.0
1.141189 0.137560 0.0
1.129795 0.135451 0.0
1.115381 0.131611 0.0
1.098508 0.126667 0.0
1.079695 0.121146 0.0
1.059462 0.115398 0.0
1.038375 0.109511 0.0
1.017090 0.103270 0.0
0.996380 0.096193 0.0
0.977113 0.087659 0.0
0.960181 0.077106 0.0
0.946399 0.064223 0.0
0.936389 0.049084 0.0
0.930489 0.032167 0.0
0.928708 0.014277 0.0
0.930710 -0.003577 0.0
0.935822 -0.020208 0.0
0.943190 -0.034671 0.0
0.951998 -0.046395 0.0
0.961556 -0.055140 0.0
0.971326 -0.060923 0.0
0.980909 -0.063929 0.0
0.990020 -0.064448 0.0
0.998460 -0.062818 0.0
1.006095 -0.059389 0.0
1.012836 -0.054495 0.0
1.018616 -0.048440 0.0
1.023380 -0.041477 0.0
1.027074 -0.033833 0.0
1.029545 -0.025068 0.0
0.998329 -0.010098 0.0
0.991436 -0.029967 0.0
0.976734 -0.050671 0.0
0.952072 -0.073574 0.0
0.913311 -0.100416 0.0
0.852439 -0.133448 0.0
0.752597 -0.175286 0.0
0.573777 -0.228438 0.0
0.228753 -0.271800 0.0
0.000000 0.251432 0.0
-0.000000 -0.000000 0.0
0.000000 0.000000 0.0
-0.029676 -0.030055 0.0
-0.066968 -0.047595 0.0
-0.078407 0.003292 0.0
-0.089491 0.103325 0.0
-0.111335 0.184077 0.0
-0.144168 0.230769 0.0
-0.179646 0.239884 0.0
-0.208352 0.206995 0.0
-0.221286 0.131237 0.0
-0.211778 0.017486 0.0
-0.181643 -0.115062 0.0
-0.139271 -0.239295 0.0
-0.089501 -0.336789 0.0
-0.028379 -0.389055 0.0
0.047614 -0.388508 0.0
0.138412 -0.345586 0.0
0.244789 -0.264762 0.0
0.364013 -0.157914 0.0
0.486096 -0.044347 0.0
0.592468 0.054226 0.0
0.675426 0.133148 0.0
0.739772 0.198451 0.0
0.787310 0.251875 0.0
0.818678 0.293681 0.0
0.834304 0.324349 0.0
0.834274 0.344983 0.0
0.818164 0.357588 0.0
0.785466 0.365009 0.0
0.737283 0.369580 0.0
0.678943 0.370132 0.0
0.620963 0.359890 0.0
0.575723 0.329432 0.0
0.551534 0.273911 0.0
0.549436 0.197229 0.0
0.565049 0.109221 0.0
0.592140 0.020440 0.0
0.624068 -0.058780 0.0
0.655887 -0.124181 0.0
0.685199 -0.175733 0.0
0.710607 -0.214367 0.0
0.731450 -0.241423 0.0
0.747817 -0.258370 0.0
0.760626 -0.266484 0.0
0.771656 -0.266516 0.0
0.783379 -0.258501 0.0
0.798497 -0.241903 0.0
0.819249 -0.216143 0.0
0.846782 -0.181305 0.0
0.880839 -0.138647 0.0
0.919890 -0.090674 0.0
0.961445 -0.040846 0.0
1.001341 0.005820 0.0
1.035451 0.045117 0.0
1.062379 0.076565 0.0
1.082349 0.100959 0.0
1.095860 0.119135 0.0
1.103515 0.131930 0.0
1.105941 0.140158 0.0
1.103745 0.144608 0.0
1.097498 0.146044 0.0
1.087734 0.145196 0.0
1.074965 0.142724 0.0
1.059715 0.139150 0.0
1.042575 0.134766 0.0
1.024250 0.129555 0.0
1.005593 0.123168 0.0
0.987585 0.115011 0.0
0.971276 0.104418 0.0
0.957660 0.090894 0.0
0.947552 0.074325 0.0
0.941463 0.055081 0.0
0.939539 0.033994 0.0
0.941552 0.012219 0.0
0.946877 -0.008846 0.0
0.954591 -0.027765 0.0
0.963750 -0.043642 0.0
0.973571 -0.056053 0.0
0.983463 -0.064932 0.0
0.993008 -0.070448 0.0
1.001935 -0.072915 0.0
1.010083 -0.072720 0.0
1.017366 -0.070269 0.0
1.023752 -0.065959 0.0
1.029236 -0.060150 0.0
1.033826 -0.053155 0.0
1.037526 -0.045226 0.0
1.040324 -0.036576 0.0
1.042113 -0.026586 0.0
0.998148 -0.006575 0.0
0.990550 -0.019001 0.0
0.974481 -0.030865 0.0
0.947916 -0.042153 0.0
0.907255 -0.052415 0.0
0.846561 -0.059882 0.0
0.756819 -0.059269 0.0
0.626939 -0.035755 0.0
0.461006 0.051244 0.0
0.185743 0.167207 0.0
0.000000 0.000000 0.0
-0.000000 -0.000000 0.0
0.000000 0.000000 0.0
-0.019655 -0.019990 0.0
-0.056681 0.024486 0.0
-0.099476 0.136011 0.0
-0.145742 0.219501 0.0
-0.183843 0.266279 0.0
-0.214287 0.270295 0.0
-0.233180 0.224182 0.0
-0.232559 0.126363 0.0
-0.207238 -0.012469 0.0
-0.166825 -0.155655 0.0
-0.126130 -0.281768 0.0
-0.090514 -0.379702 0.0
-0.057238 -0.440539 0.0
-0.015668 -0.454587 0.0
0.042411 -0.428384 0.0
0.119024 -0.364955 0.0
0.213355 -0.271276 0.0
0.319697 -0.159411 0.0
0.427407 -0.044792 0.0
0.521110 0.055505 0.0
0.594352 0.138506 0.0
0.650017 0.208617 0.0
0.688832 0.266757 0.0
0.710768 0.313710 0.0
0.715553 0.350867 0.0
0.703221 0.380145 0.0
0.675375 0.402997 0.0
0.636966 0.418184 0.0
0.597058 0.419776 0.0
0.566578 0.398707 0.0
0.553620 0.348813 0.0
0.560195 0.272143 0.0
0.583195 0.178096 0.0
0.617548 0.078388 0.0
0.657256 -0.015525 0.0
0.696698 -0.094185 0.0
0.732744 -0.156641 0.0
0.763939 -0.203780 0.0
0.789331 -0.237120 0.0
0.808368 -0.258550 0.0
0.820914 -0.270157 0.0
0.827382 -0.273975 0.0
0.828958 -0.271631 0.0
0.827782 -0.263934 0.0
0.826849 -0.250655 0.0
0.829461 -0.230755 0.0
0.838356 -0.203121 0.0
0.854932 -0.167465 0.0
0.878924 -0.124899 0.0
0.908652 -0.077904 0.0
0.941506 -0.029873 0.0
0.973639 0.014568 0.0
1.001686 0.052139 0.0
1.024455 0.082645 0.0
1.041788 0.106605 0.0
1.053866 0.124726 0.0