# vtk DataFile Version 3.0
Vector Field
ASCII
DATASET RECTILINEAR_GRID
DIMENSIONS 100 26 1
X_COORDINATES 100 double
0.050000 0.150000 0.250000 0.350000 0.450000 0.550000 0.650000 0.750000 0.850000 0.950000 1.050000 1.150000 1.250000 1.350000 1.450000 1.550000 1.650000 1.750000 1.850000 1.950000 2.050000 2.150000 2.250000 2.350000 2.450000 2.550000 2.650000 2.750000 2.850000 2.950000 3.050000 3.150000 3.250000 3.350000 3.450000 3.550000 3.650000 3.750000 3.850000 3.950000 4.050000 4.150000 4.250000 4.350000 4.450000 4.550000 4.650000 4.750000 4.850000 4.950000 5.050000 5.150000 5.250000 5.350000 5.450000 5.550000 5.650000 5.750000 5.850000 5.950000 6.050000 6.150000 6.250000 6.350000 6.450000 6.550000 6.650000 6.750000 6.850000 6.950000 7.050000 7.150000 7.250000 7.350000 7.450000 7.550000 7.650000 7.750000 7.850000 7.950000 8.050000 8.150000 8.250000 8.350000 8.450000 8.550000 8.650000 8.750000 8.850000 8.950000 9.050000 9.150000 9.250000 9.350000 9.450000 9.550000 9.650000 9.750000 9.850000 9.950000 
Y_COORDINATES 26 double
0.050000 0.150000 0.250000 0.350000 0.450000 0.550000 0.650000 0.750000 0.850000 0.950000 1.050000 1.150000 1.250000 1.350000 1.450000 1.550000 1.650000 1.750000 1.850000 1.950000 2.050000 2.150000 2.250000 2.350000 2.450000 2.550000 
Z_COORDINATES 1 double
0.0
POINT_DATA 2600
VECTORS Vektorfeld double
1.000888 -0.000888 0.0
1.004887 -0.003111 0.0
1.013467 -0.005470 0.0
1.026775 -0.007838 0.0
1.044727 -0.010113 0.0
1.067003 -0.012164 0.0
1.092986 -0.013820 0.0
1.121692 -0.014886 0.0
1.151760 -0.015182 0.0
1.181549 -0.014607 0.0
1.209356 -0.013201 0.0
1.233697 -0.011140 0.0
1.253505 -0.008669 0.0
1.268215 -0.006042 0.0
1.277742 -0.003485 0.0
1.282410 -0.001184 0.0
1.282877 0.000717 0.0
1.280043 0.002117 0.0
1.274973 0.002952 0.0
1.268832 0.003189 0.0
1.262816 0.002828 0.0
1.258073 0.001914 0.0
1.255618 0.000541 0.0
1.256195 -0.001118 0.0
1.260111 -0.002799 0.0
1.267102 -0.004192 0.0
1.276265 -0.004970 0.0
1.286104 -0.004868 0.0
1.294748 -0.003776 0.0
1.300314 -0.001790 0.0
1.301236 0.000868 0.0
1.296424 0.003944 0.0
1.285335 0.007146 0.0
1.267966 0.010223 0.0
1.244761 0.012982 0.0
1.216478 0.015300 0.0
1.184072 0.017106 0.0
1.148598 0.018368 0.0
1.111150 0.019081 0.0
1.072815 0.019254 0.0
1.034664 0.018898 0.0
0.997742 0.018024 0.0
0.963081 0.016637 0.0
0.931713 0.014730 0.0
0.904704 0.012279 0.0
0.883185 0.009240 0.0
0.868360 0.005584 0.0
0.861390 0.001386 0.0
0.862992 -0.002987 0.0
0.873229 -0.007251 0.0
0.891775 -0.011295 0.0
0.918087 -0.015016 0.0
0.951373 -0.018270 0.0
0.990515 -0.020871 0.0
1.033958 -0.022572 0.0
1.079602 -0.023071 0.0
1.124723 -0.022051 0.0
1.166062 -0.019288 0.0
1.200159 -0.014810 0.0
1.224013 -0.009043 0.0
1.235851 -0.002795 0.0
1.235412 0.003234 0.0
1.223396 0.008782 0.0
1.200982 0.013632 0.0
1.169752 0.017598 0.0
1.131602 0.020552 0.0
1.088622 0.022429 0.0
1.042982 0.023210 0.0
0.996866 0.022906 0.0
0.952421 0.021540 0.0
0.911719 0.019162 0.0
0.876672 0.015884 0.0
0.848868 0.011919 0.0
0.829352 0.007597 0.0
0.818419 0.003336 0.0
0.815459 -0.000376 0.0
0.818957 -0.003122 0.0
0.827117 -0.005038 0.0
0.838557 -0.006402 0.0
0.852437 -0.007478 0.0
0.868398 -0.008482 0.0
0.886455 -0.009575 0.0
0.906875 -0.010845 0.0
0.930023 -0.012303 0.0
0.956200 -0.013874 0.0
0.985480 -0.015406 0.0
1.017577 -0.016691 0.0
1.051751 -0.017483 0.0
1.086766 -0.017532 0.0
1.120907 -0.016609 0.0
1.152075 -0.014560 0.0
1.178014 -0.011380 0.0
1.196693 -0.007298 0.0
1.206782 -0.002791 0.0
1.207963 0.001611 0.0
1.200761 0.005591 0.0
1.186327 0.008843 0.0
1.166598 0.010886 0.0
1.144629 0.011083 0.0
1.127066 0.006480 0.0
1.001440 -0.003216 0.0
1.006855 -0.010197 0.0
1.017275 -0.017385 0.0
1.032610 -0.024565 0.0
1.052754 -0.031482 0.0
1.077443 -0.037760 0.0
1.106118 -0.042881 0.0
1.137808 -0.046220 0.0
1.171075 -0.047183 0.0
1.204082 -0.045401 0.0
1.234879 -0.041010 0.0
1.261806 -0.034598 0.0
1.283747 -0.026960 0.0
1.300177 -0.018891 0.0
1.311095 -0.011079 0.0
1.316907 -0.004071 0.0
1.318325 0.001720 0.0
1.316289 0.005984 0.0
1.311923 0.008522 0.0
1.306452 0.009231 0.0
1.301139 0.008115 0.0
1.297204 0.005305 0.0
1.295718 0.001091 0.0
1.297505 -0.004032 0.0
1.303029 -0.009325 0.0
1.312197 -0.013825 0.0
1.324178 -0.016482 0.0
1.337397 -0.016414 0.0
1.349739 -0.013217 0.0
1.358941 -0.007116 0.0
1.363047 0.001166 0.0
1.360799 0.010706 0.0
1.351708 0.020565 0.0
1.335910 0.029970 0.0
1.313994 0.038356 0.0
1.286843 0.045360 0.0
1.255510 0.050786 0.0
1.221115 0.054556 0.0
1.184789 0.056667 0.0
1.147642 0.057150 0.0
1.110748 0.056047 0.0
1.075150 0.053395 0.0
1.041861 0.049217 0.0
1.011857 0.043522 0.0
0.986043 0.036309 0.0
0.965176 0.027595 0.0
0.949764 0.017466 0.0
0.940068 0.006169 0.0
0.936464 -0.005767 0.0
0.939611 -0.017855 0.0
0.950096 -0.029721 0.0
0.968117 -0.040923 0.0
0.993448 -0.050981 0.0
1.025513 -0.059367 0.0
1.063414 -0.065421 0.0
1.105834 -0.068286 0.0
1.150860 -0.066984 0.0
1.195853 -0.060686 0.0
1.237471 -0.049128 0.0
1.271943 -0.033051 0.0
1.295657 -0.014340 0.0
1.306304 0.004570 0.0
1.303790 0.021975 0.0
1.289520 0.037123 0.0
1.265384 0.049474 0.0
1.233525 0.058684 0.0
1.196205 0.064597 0.0
1.155690 0.067196 0.0
1.114169 0.066557 0.0
1.073680 0.062823 0.0
1.036024 0.056238 0.0
1.002637 0.047243 0.0
0.974434 0.036566 0.0
0.951691 0.025209 0.0
0.934075 0.014274 0.0
0.920985 0.004736 0.0
0.912060 -0.002807 0.0
0.906975 -0.008428 0.0
0.905168 -0.012645 0.0
0.906157 -0.016104 0.0
0.909746 -0.019406 0.0
0.916072 -0.023035 0.0
0.925556 -0.027289 0.0
0.938768 -0.032219 0.0
0.956232 -0.037599 0.0
0.978235 -0.042964 0.0
1.004688 -0.047683 0.0
1.035071 -0.051049 0.0
1.068453 -0.052363 0.0
1.103538 -0.051003 0.0
1.138730 -0.046525 0.0
1.172170 -0.038794 0.0
1.201759 -0.028152 0.0
1.225269 -0.015537 0.0
1.240822 -0.002376 0.0
1.247883 0.009720 0.0
1.247561 0.019470 0.0
1.241902 0.025647 0.0
1.233427 0.026766 0.0
1.225159 0.016629 0.0
1.001334 -0.005990 0.0
1.006596 -0.018100 0.0
1.017043 -0.030349 0.0
1.032707 -0.042599 0.0
1.053640 -0.054526 0.0
1.079771 -0.065536 0.0
1.110714 -0.074723 0.0
1.145552 -0.080906 0.0
1.182659 -0.082872 0.0
1.219656 -0.079717 0.0
1.253892 -0.071727 0.0
1.283235 -0.060152 0.0
1.306446 -0.046556 0.0
1.323099 -0.032379 0.0
1.333387 -0.018796 0.0
1.337927 -0.006706 0.0
1.337627 0.003238 0.0
1.333597 0.010532 0.0
1.327083 0.014853 0.0
1.319429 0.016024 0.0
1.312032 0.014032 0.0
1.306295 0.009061 0.0
1.303562 0.001554 0.0
1.304991 -0.007713 0.0
1.311345 -0.017522 0.0
1.322696 -0.026146 0.0
1.338122 -0.031569 0.0
1.355597 -0.032021 0.0
1.372272 -0.026626 0.0
1.385163 -0.015799 0.0
1.391971 -0.001065 0.0
1.391458 0.015698 0.0
1.383311 0.032810 0.0
1.367891 0.048943 0.0
1.346023 0.063169 0.0
1.318786 0.074934 0.0
1.287364 0.083968 0.0
1.252937 0.090196 0.0
1.216635 0.093655 0.0
1.179511 0.094432 0.0
1.142542 0.092627 0.0
1.106624 0.088329 0.0
1.072580 0.081616 0.0
1.041145 0.072563 0.0
1.012967 0.061262 0.0
0.988625 0.047852 0.0
0.968711 0.032537 0.0
0.953911 0.015593 0.0
0.944970 -0.002646 0.0
0.942468 -0.021622 0.0
0.946623 -0.040593 0.0
0.957317 -0.058767 0.0
0.974345 -0.075497 0.0
0.997630 -0.090201 0.0
1.027197 -0.102055 0.0
1.062881 -0.109755 0.0
1.103936 -0.111595 0.0
1.148719 -0.105850 0.0
1.194528 -0.091390 0.0
1.237627 -0.068359 0.0
1.273570 -0.038689 0.0
1.298048 -0.006206 0.0
1.308783 0.024531 0.0
1.306329 0.051291 0.0
1.292601 0.073170 0.0
1.269812 0.089636 0.0
1.240282 0.100495 0.0
1.206284 0.105811 0.0
1.169917 0.105829 0.0
1.133008 0.100948 0.0
1.097023 0.091754 0.0
1.063022 0.079116 0.0
1.031679 0.064239 0.0
1.003384 0.048572 0.0
0.978372 0.033539 0.0
0.956746 0.020186 0.0
0.938419 0.008996 0.0
0.923210 0.000064 0.0
0.910917 -0.007038 0.0
0.901353 -0.013135 0.0
0.894592 -0.019203 0.0
0.891110 -0.026081 0.0
0.891674 -0.034291 0.0
0.897126 -0.043880 0.0
0.908099 -0.054375 0.0
0.924813 -0.064906 0.0
0.947018 -0.074397 0.0
0.974043 -0.081743 0.0
1.004910 -0.085918 0.0
1.038434 -0.086058 0.0
1.073306 -0.081534 0.0
1.108139 -0.072058 0.0
1.141501 -0.057840 0.0
1.171922 -0.039780 0.0
1.197892 -0.019656 0.0
1.217930 -0.000099 0.0
1.231428 0.016112 0.0
1.239183 0.026908 0.0
1.242570 0.030592 0.0
1.242521 0.021121 0.0
1.001292 -0.008616 0.0
1.006467 -0.025910 0.0
1.016912 -0.043429 0.0
1.032879 -0.061150 0.0
1.054723 -0.078752 0.0
1.082756 -0.095472 0.0
1.116987 -0.109962 0.0
1.156719 -0.120236 0.0
1.200165 -0.124094 0.0
1.243880 -0.119208 0.0
1.283682 -0.106273 0.0
1.316622 -0.087891 0.0
1.341429 -0.066834 0.0
1.358015 -0.045341 0.0
1.366967 -0.025075 0.0
1.369248 -0.007249 0.0
1.366060 0.007267 0.0
1.358721 0.017872 0.0
1.348635 0.024114 0.0
1.337326 0.025726 0.0
1.326400 0.022653 0.0
1.317502 0.015075 0.0
1.312296 0.003479 0.0
1.312398 -0.011168 0.0
1.319110 -0.027133 0.0
1.332950 -0.041725 0.0
1.353073 -0.051539 0.0
1.376930 -0.053384 0.0
1.400535 -0.045544 0.0
1.419459 -0.028698 0.0
1.430259 -0.005774 0.0
1.431430 0.019749 0.0
1.423057 0.045279 0.0
1.406058 0.068893 0.0
1.381801 0.089345 0.0
1.351815 0.105980 0.0
1.317598 0.118562 0.0
1.280512 0.127115 0.0
1.241755 0.131795 0.0
1.202366 0.132805 0.0
1.163241 0.130349 0.0
1.125158 0.124608 0.0
1.088794 0.115745 0.0
1.054752 0.103910 0.0
1.023595 0.089249 0.0
0.995901 0.071901 0.0
0.972282 0.052021 0.0
0.953315 0.029876 0.0
0.939336 0.005992 0.0
0.930299 -0.018722 0.0
0.925871 -0.043220 0.0
0.925806 -0.066769 0.0
0.930426 -0.089142 0.0
0.940786 -0.110201 0.0
0.958287 -0.129124 0.0
0.983963 -0.144046 0.0
1.017924 -0.152320 0.0
1.059168 -0.151152 0.0
1.105617 -0.138347 0.0
1.154175 -0.113059 0.0
1.200748 -0.076504 0.0
1.240365 -0.032486 0.0
1.267928 0.012513 0.0
1.281208 0.052484 0.0
1.281359 0.085555 0.0
1.270476 0.110923 0.0
1.250873 0.128341 0.0
1.224850 0.137987 0.0
1.194524 0.140346 0.0
1.161712 0.136152 0.0
1.127867 0.126381 0.0
1.094074 0.112283 0.0
1.061132 0.095358 0.0
1.029646 0.077234 0.0
1.000081 0.059454 0.0
0.972736 0.043242 0.0
0.947684 0.029320 0.0
0.924823 0.017810 0.0
0.904105 0.008226 0.0
0.885784 -0.000512 0.0
0.870516 -0.009798 0.0
0.859355 -0.020842 0.0
0.853496 -0.034234 0.0
0.853873 -0.049767 0.0
0.860903 -0.066491 0.0
0.874421 -0.083023 0.0
0.893818 -0.097881 0.0
0.918215 -0.109681 0.0
0.946602 -0.117233 0.0
0.977918 -0.119583 0.0
1.011094 -0.116056 0.0
1.045074 -0.106349 0.0
1.078825 -0.090662 0.0
1.111321 -0.069875 0.0
1.141503 -0.045714 0.0
1.168229 -0.020804 0.0
1.190164 0.001385 0.0
1.206525 0.017519 0.0
1.217558 0.025561 0.0
1.223198 0.020561 0.0
1.001231 -0.011140 0.0
1.006201 -0.033532 0.0
1.016379 -0.056430 0.0
1.032296 -0.080034 0.0
1.054756 -0.104174 0.0
1.084718 -0.128045 0.0
1.122983 -0.149885 0.0
1.169495 -0.166556 0.0
1.222780 -0.174506 0.0
1.277180 -0.166911 0.0
1.325000 -0.146192 0.0
1.362200 -0.118112 0.0
1.388126 -0.087345 0.0
1.403625 -0.056915 0.0
1.409999 -0.028826 0.0
1.408704 -0.004485 0.0
1.401207 0.015188 0.0
1.388988 0.029510 0.0
1.373645 0.037905 0.0
1.356889 0.040000 0.0
1.340530 0.035664 0.0
1.326442 0.025051 0.0
1.316534 0.008616 0.0
1.312871 -0.012743 0.0
1.317550 -0.036948 0.0
1.331981 -0.060182 0.0
1.355873 -0.077097 0.0
1.386569 -0.082378 0.0
1.419155 -0.072741 0.0
1.447357 -0.048627 0.0
1.465440 -0.014728 0.0
1.470625 0.022346 0.0
1.463277 0.058403 0.0
1.445165 0.090881 0.0
1.418460 0.118319 0.0
1.385322 0.140130 0.0
1.347670 0.156281 0.0
1.307118 0.167034 0.0
1.264984 0.172766 0.0
1.222342 0.173866 0.0
1.180067 0.170688 0.0
1.138884 0.163535 0.0
1.099408 0.152657 0.0
1.062191 0.138258 0.0
1.027754 0.120494 0.0
0.996604 0.099501 0.0
0.969131 0.075512 0.0
0.945395 0.049088 0.0
0.924902 0.021253 0.0
0.906717 -0.006761 0.0
0.890188 -0.034224 0.0
0.875787 -0.061299 0.0
0.865460 -0.088905 0.0
0.862167 -0.117505 0.0
0.868583 -0.145737 0.0
0.885965 -0.170491 0.0
0.914004 -0.187876 0.0
0.951313 -0.194150 0.0
0.995888 -0.186373 0.0
1.045265 -0.162969 0.0
1.096428 -0.124329 0.0
1.145563 -0.073414 0.0
1.187726 -0.016285 0.0
1.217864 0.037865 0.0
1.234202 0.083684 0.0
1.238067 0.119812 0.0
1.231330 0.145793 0.0
1.216052 0.161836 0.0
1.194253 0.168622 0.0
1.167752 0.167187 0.0
1.138093 0.158851 0.0
1.106525 0.145173 0.0
1.074044 0.127891 0.0
1.041426 0.108805 0.0
1.009237 0.089636 0.0
0.977813 0.071827 0.0
0.947319 0.056281 0.0
0.917942 0.043087 0.0
0.890195 0.031412 0.0
0.865115 0.019704 0.0
0.844121 0.006247 0.0
0.828609 -0.010215 0.0
0.819630 -0.030023 0.0
0.817713 -0.052439 0.0
0.822771 -0.075905 0.0
0.834233 -0.098589 0.0
0.851276 -0.118757 0.0
0.872997 -0.134924 0.0
0.898497 -0.145877 0.0
0.926912 -0.150669 0.0
0.957413 -0.148646 0.0
0.989198 -0.139526 0.0
1.021488 -0.123527 0.0
1.053506 -0.101523 0.0
1.084431 -0.075173 0.0
1.113335 -0.046976 0.0
1.139122 -0.020166 0.0
1.160374 0.001455 0.0
1.176037 0.014928 0.0
1.185371 0.016220 0.0
1.001102 -0.013473 0.0
1.005580 -0.040647 0.0
1.014900 -0.068811 0.0
1.029898 -0.098567 0.0
1.051948 -0.130152 0.0
1.082968 -0.163049 0.0
1.125198 -0.195376 0.0
1.180143 -0.222522 0.0
1.248620 -0.240304 0.0
1.319535 -0.226428 0.0
1.376764 -0.191724 0.0
1.416376 -0.149392 0.0
1.440678 -0.106294 0.0
1.452622 -0.065410 0.0
1.454439 -0.028521 0.0
1.447910 0.003035 0.0
1.434513 0.028563 0.0
1.415682 0.047187 0.0
1.393100 0.058153 0.0
1.368665 0.060944 0.0
1.344399 0.055344 0.0
1.322361 0.041498 0.0
1.304511 0.019926 0.0
1.292800 -0.008679 0.0
1.289893 -0.042783 0.0
1.298638 -0.077524 0.0
1.320088 -0.105097 0.0
1.352645 -0.117631 0.0
1.392128 -0.109556 0.0
1.431721 -0.079607 0.0
1.462689 -0.032799 0.0
1.478112 0.019810 0.0
1.476972 0.069427 0.0
1.462128 0.112812 0.0
1.436756 0.148464 0.0
1.403741 0.176138 0.0
1.365436 0.196229 0.0
1.323692 0.209383 0.0
1.279951 0.216290 0.0
1.235355 0.217580 0.0
1.190820 0.213784 0.0
1.147103 0.205339 0.0
1.104847 0.192585 0.0
1.064620 0.175775 0.0
1.026931 0.155103 0.0
0.992145 0.130828 0.0
0.960249 0.103554 0.0
0.930518 0.074513 0.0
0.901459 0.045380 0.0
0.871502 0.017253 0.0
0.840441 -0.010648 0.0
0.810986 -0.041020 0.0
0.788276 -0.076147 0.0
0.777007 -0.115700 0.0
0.779133 -0.156083 0.0
0.793904 -0.192297 0.0
0.819369 -0.219574 0.0
0.853541 -0.233933 0.0
0.894706 -0.232329 0.0
0.941233 -0.212918 0.0
0.991260 -0.175570 0.0
1.042392 -0.122440 0.0
1.091386 -0.058415 0.0
1.133238 0.008005 0.0
1.163588 0.066855 0.0
1.181560 0.114805 0.0
1.188163 0.150933 0.0
1.184857 0.175279 0.0
1.173276 0.188560 0.0
1.155047 0.191980 0.0
1.131670 0.187094 0.0
1.104462 0.175706 0.0
1.074531 0.159771 0.0
1.042760 0.141313 0.0
1.009790 0.122287 0.0
0.976062 0.104329 0.0
0.941975 0.088360 0.0
0.908184 0.074176 0.0
0.875863 0.060391 0.0
0.846717 0.044952 0.0
0.822650 0.026060 0.0
0.805198 0.002936 0.0
0.795039 -0.024036 0.0
0.792053 -0.053523 0.0
0.795689 -0.083516 0.0
0.805188 -0.111939 0.0
0.819723 -0.136985 0.0
0.838493 -0.157186 0.0
0.860751 -0.171374 0.0
0.885810 -0.178648 0.0
0.913034 -0.178391 0.0
0.941815 -0.170346 0.0
0.971553 -0.154735 0.0
1.001626 -0.132405 0.0
1.031348 -0.104937 0.0
1.059911 -0.074679 0.0
1.086321 -0.044659 0.0
1.109348 -0.018331 0.0
1.127489 0.000911 0.0
1.139149 0.009244 0.0
1.000861 -0.015436 0.0
1.004387 -0.046689 0.0
1.011877 -0.079580 0.0
1.024405 -0.115324 0.0
1.043906 -0.154946 0.0
1.073487 -0.198856 0.0
1.117669 -0.245981 0.0
1.181306 -0.290500 0.0
1.273277 -0.332774 0.0
1.367398 -0.298994 0.0
1.428749 -0.237736 0.0
1.461735 -0.175977 0.0
1.477243 -0.119518 0.0
1.481379 -0.068266 0.0
1.476583 -0.022687 0.0
1.463655 0.016658 0.0
1.443123 0.048868 0.0
1.416197 0.072639 0.0
1.384570 0.086908 0.0
1.350213 0.090981 0.0
1.315237 0.084548 0.0
1.281827 0.067742 0.0
1.252038 0.041321 0.0
1.227119 0.006556 0.0
1.208536 -0.036528 0.0
1.200078 -0.084066 0.0
1.205626 -0.125552 0.0
1.226854 -0.150962 0.0
1.263261 -0.152115 0.0
1.310719 -0.124100 0.0
1.359928 -0.068484 0.0
1.397352 0.002649 0.0
1.415076 0.070005 0.0
1.415019 0.127135 0.0
1.401574 0.172957 0.0
1.378257 0.207978 0.0
1.347703 0.233248 0.0
1.311907 0.249905 0.0
1.272438 0.258978 0.0
1.230585 0.261341 0.0
1.187435 0.257707 0.0
1.143920 0.248648 0.0
1.100851 0.234602 0.0
1.058928 0.215907 0.0
1.018695 0.192894 0.0
0.980311 0.166208 0.0
0.943092 0.137289 0.0
0.905162 0.108438 0.0
0.864137 0.081540 0.0
0.819449 0.055738 0.0
0.774753 0.026626 0.0
0.737020 -0.011105 0.0
0.712778 -0.059111 0.0
0.704444 -0.113134 0.0
0.710007 -0.166339 0.0
0.726042 -0.212848 0.0
0.749904 -0.248350 0.0
0.780110 -0.269534 0.0
0.815914 -0.273696 0.0
0.856759 -0.258922 0.0
0.901838 -0.224673 0.0
0.949814 -0.172446 0.0
0.998623 -0.106213 0.0
1.045162 -0.032589 0.0
1.084539 0.037724 0.0
1.113330 0.097173 0.0
1.131318 0.143973 0.0
1.139120 0.177743 0.0
1.137771 0.199026 0.0
1.128494 0.209020 0.0
1.112556 0.209370 0.0
1.091168 0.202027 0.0
1.065414 0.189135 0.0
1.036199 0.172935 0.0
1.004244 0.155590 0.0
0.970179 0.138820 0.0
0.934775 0.123361 0.0
0.899213 0.108528 0.0
0.865206 0.092367 0.0
0.834802 0.072527 0.0
0.809904 0.047450 0.0
0.791795 0.017106 0.0
0.780882 -0.017134 0.0
0.776806 -0.053363 0.0
0.778852 -0.089359 0.0
0.786239 -0.122981 0.0
0.798198 -0.152436 0.0
0.814004 -0.176310 0.0
0.833001 -0.193505 0.0
0.854613 -0.203188 0.0
0.878332 -0.204794 0.0
0.903697 -0.198089 0.0
0.930252 -0.183285 0.0
0.957501 -0.161177 0.0
0.984860 -0.133247 0.0
1.011614 -0.101685 0.0
1.036856 -0.069304 0.0
1.059456 -0.039313 0.0
1.078082 -0.014874 0.0
1.090897 0.000553 0.0
1.000479 -0.016775 0.0
1.002458 -0.050854 0.0
1.006813 -0.087261 0.0
1.014620 -0.127977 0.0
1.028052 -0.175226 0.0
1.051187 -0.231292 0.0
1.091336 -0.297876 0.0
1.159511 -0.370419 0.0
1.284984 -0.470298 0.0
1.402261 -0.372868 0.0
1.443088 -0.266040 0.0
1.447532 -0.185103 0.0
1.442223 -0.120591 0.0
1.434300 -0.063405 0.0
1.422532 -0.010984 0.0
1.403985 0.036430 0.0
1.377338 0.076275 0.0
1.343113 0.106384 0.0
1.302611 0.125292 0.0
1.257432 0.132134 0.0
1.209318 0.126485 0.0
1.160205 0.108327 0.0
1.112350 0.078379 0.0
1.067730 0.039038 0.0
1.025088 -0.007784 0.0
0.985876 -0.065140 0.0
0.960257 -0.124406 0.0
0.958954 -0.172032 0.0
0.985875 -0.194372 0.0
1.037706 -0.181132 0.0
1.105935 -0.128890 0.0
1.176972 -0.045406 0.0
1.232589 0.044719 0.0
1.265455 0.119612 0.0
1.280576 0.178803 0.0
1.281927 0.224097 0.0
1.272237 0.257374 0.0
1.253578 0.280235 0.0
1.227708 0.293986 0.0
1.196207 0.299687 0.0
1.160512 0.298207 0.0
1.121920 0.290255 0.0
1.081579 0.276405 0.0
1.040441 0.257164 0.0
0.999036 0.233275 0.0
0.956885 0.206362 0.0
0.911914 0.179325 0.0
0.861260 0.154987 0.0
0.804538 0.132738 0.0
0.747195 0.106571 0.0
0.699138 0.068546 0.0
0.668464 0.015382 0.0
0.656348 -0.049241 0.0
0.658452 -0.116774 0.0
0.669723 -0.179533 0.0
0.686798 -0.232764 0.0
0.708038 -0.273536 0.0
0.733004 -0.299519 0.0
0.761941 -0.308453 0.0
0.795273 -0.298343 0.0
0.833128 -0.268186 0.0
0.875024 -0.218805 0.0
0.919739 -0.153378 0.0
0.965259 -0.077484 0.0
1.008008 0.000493 0.0
1.043676 0.069944 0.0
1.070026 0.126865 0.0
1.086836 0.170239 0.0
1.094468 0.200248 0.0
1.093637 0.217907 0.0
1.085247 0.224811 0.0
1.070268 0.222952 0.0
1.049640 0.214591 0.0
1.024216 0.202118 0.0
0.994781 0.187798 0.0
0.962184 0.173273 0.0
0.927567 0.158928 0.0
0.892537 0.143553 0.0
0.859110 0.124776 0.0
0.829367 0.100264 0.0
0.804989 0.068988 0.0
0.786947 0.031719 0.0
0.775494 -0.009381 0.0
0.770308 -0.051854 0.0
0.770760 -0.093366 0.0
0.776153 -0.131753 0.0
0.785766 -0.165236 0.0
0.798899 -0.192450 0.0
0.814913 -0.212376 0.0
0.833267 -0.224282 0.0
0.853533 -0.227685 0.0
0.875359 -0.222390 0.0
0.898418 -0.208598 0.0
0.922341 -0.187035 0.0
0.946654 -0.159062 0.0
0.970734 -0.126704 0.0
0.993772 -0.092566 0.0
1.014749 -0.059628 0.0
1.032455 -0.030891 0.0
1.045196 -0.008987 0.0
0.999955 -0.017209 0.0
0.999787 -0.052231 0.0
0.999630 -0.090083 0.0
1.000124 -0.133455 0.0
1.002864 -0.185920 0.0
1.011583 -0.252451 0.0
1.034911 -0.340193 0.0
1.091597 -0.452964 0.0
1.248241 -0.669870 0.0
1.360168 -0.402500 0.0
1.322421 -0.239489 0.0
1.265507 -0.159184 0.0
1.228221 -0.103917 0.0
1.209201 -0.053137 0.0
1.196895 0.002822 0.0
1.179640 0.058427 0.0
1.153530 0.107035 0.0
1.118151 0.145227 0.0
1.073905 0.171197 0.0
1.021076 0.184236 0.0
0.959180 0.184393 0.0
0.886547 0.172165 0.0
0.801796 0.147146 0.0
0.709091 0.107596 0.0
0.623842 0.051548 0.0
0.564031 -0.025450 0.0
0.542486 -0.116932 0.0
0.561141 -0.196858 0.0
0.610658 -0.245984 0.0
0.682039 -0.252732 0.0
0.769084 -0.212564 0.0
0.866053 -0.129738 0.0
0.961564 -0.022076 0.0
1.038405 0.076700 0.0
1.091313 0.153686 0.0
1.125880 0.213295 0.0
1.145127 0.258620 0.0
1.151114 0.291661 0.0
1.145679 0.313865 0.0
1.130610 0.326378 0.0
1.107640 0.330180 0.0
1.078387 0.326127 0.0
1.044263 0.314998 0.0
1.006259 0.297713 0.0
0.964429 0.275961 0.0
0.917366 0.252890 0.0
0.862932 0.232203 0.0
0.801348 0.214346 0.0
0.738555 0.192893 0.0
0.685027 0.157287 0.0
0.649427 0.101486 0.0
0.633516 0.029028 0.0
0.633058 -0.050314 0.0
0.642133 -0.126879 0.0
0.656264 -0.194830 0.0
0.672949 -0.251227 0.0
0.691085 -0.294451 0.0
0.710624 -0.323109 0.0
0.732315 -0.335491 0.0
0.757319 -0.329640 0.0
0.786655 -0.304079 0.0
0.820701 -0.258853 0.0
0.858958 -0.196302 0.0
0.900062 -0.121183 0.0
0.941750 -0.040244 0.0
0.980027 0.036735 0.0
1.011375 0.102375 0.0
1.034566 0.154728 0.0
1.049254 0.193439 0.0
1.055605 0.219196 0.0
1.054100 0.233417 0.0
1.045392 0.238033 0.0
1.030205 0.235325 0.0
1.009286 0.227726 0.0
0.983455 0.217456 0.0
0.953747 0.205919 0.0
0.921584 0.193063 0.0
0.888815 0.177218 0.0
0.857519 0.155833 0.0
0.829615 0.126853 0.0
0.806508 0.089886 0.0
0.788962 0.046409 0.0
0.777221 -0.000878 0.0
0.771126 -0.049077 0.0
0.770242 -0.095712 0.0
0.773986 -0.138542 0.0
0.781674 -0.175749 0.0
0.792588 -0.205984 0.0
0.806051 -0.228318 0.0
0.821503 -0.242148 0.0
0.838541 -0.247122 0.0
0.856892 -0.243131 0.0
0.876352 -0.230378 0.0
0.896690 -0.209516 0.0
0.917564 -0.181768 0.0
0.938469 -0.148982 0.0
0.958704 -0.113560 0.0
0.977367 -0.078272 0.0
0.993381 -0.045967 0.0
1.005254 -0.018524 0.0
0.999344 -0.016509 0.0
0.996649 -0.050068 0.0
0.991047 -0.086487 0.0
0.982239 -0.128737 0.0
0.970038 -0.181178 0.0
0.955067 -0.250941 0.0
0.941084 -0.351048 0.0
0.943600 -0.501311 0.0
1.050193 -0.884759 0.0
1.058215 -0.198824 0.0
0.876341 -0.103297 0.0
0.742304 -0.092913 0.0
0.681438 -0.072037 0.0
0.664633 -0.049191 0.0
0.671470 0.004345 0.0
0.675225 0.070403 0.0
0.666044 0.130350 0.0
0.641941 0.181393 0.0
0.599648 0.221570 0.0
0.536169 0.250172 0.0
0.450525 0.265998 0.0
0.348215 0.265503 0.0
0.245912 0.240862 0.0
0.168005 0.184493 0.0
0.133694 0.094211 0.0
0.146253 -0.020861 0.0
0.190163 -0.143886 0.0
0.248028 -0.246423 0.0
0.315141 -0.313050 0.0
0.392758 -0.334664 0.0
0.482112 -0.307032 0.0
0.582855 -0.232983 0.0
0.692331 -0.123818 0.0
0.798409 -0.004477 0.0
0.884944 0.095420 0.0
0.949067 0.172870 0.0
0.995168 0.233698 0.0
1.025244 0.280520 0.0
1.040874 0.314811 0.0
1.043687 0.337687 0.0
1.035366 0.350163 0.0
1.017527 0.353237 0.0
0.991506 0.348032 0.0
0.957949 0.336240 0.0
0.916367 0.320845 0.0
0.865580 0.305855 0.0
0.806133 0.293120 0.0
0.743500 0.277645 0.0
0.687910 0.247977 0.0
0.648853 0.194788 0.0
0.629373 0.119064 0.0
0.626137 0.030598 0.0
0.633565 -0.058854 0.0
0.646881 -0.140729 0.0
0.662805 -0.211035 0.0
0.679250 -0.268152 0.0
0.695089 -0.311501 0.0
0.710158 -0.340666 0.0
0.725283 -0.354750 0.0
0.742067 -0.352170 0.0
0.762340 -0.331159 0.0
0.787438 -0.290917 0.0
0.817689 -0.232747 0.0
0.852316 -0.160469 0.0
0.889648 -0.079977 0.0
0.926808 0.001031 0.0
0.960101 0.073437 0.0
0.987020 0.133555 0.0
1.006604 0.180342 0.0
1.018501 0.214045 0.0
1.022765 0.235808 0.0
1.019705 0.247408 0.0
1.009798 0.251045 0.0
0.993656 0.249067 0.0
0.972099 0.243503 0.0
0.946277 0.235402 0.0
0.917758 0.224263 0.0
0.888443 0.208101 0.0
0.860290 0.184399 0.0
0.834960 0.151522 0.0
0.813610 0.109675 0.0
0.796917 0.060859 0.0
0.785212 0.008119 0.0
0.778550 -0.045316 0.0
0.776705 -0.096745 0.0
0.779210 -0.143758 0.0
0.785413 -0.184425 0.0
0.794564 -0.217373 0.0
0.805923 -0.241751 0.0
0.818872 -0.257116 0.0
0.832984 -0.263303 0.0
0.848029 -0.260346 0.0
0.863907 -0.248501 0.0
0.880539 -0.228362 0.0
0.897747 -0.201004 0.0
0.915175 -0.168079 0.0
0.932257 -0.131779 0.0
0.948216 -0.094675 0.0
0.962112 -0.059475 0.0
0.972665 -0.027441 0.0
0.998755 -0.014608 0.0
0.993617 -0.044136 0.0
0.982697 -0.075897 0.0
0.964558 -0.112380 0.0
0.936542 -0.157318 0.0
0.893774 -0.217062 0.0
0.826657 -0.303826 0.0
0.717505 -0.441896 0.0
0.324803 -0.766802 0.0
-0.484181 0.273984 0.0
-0.484181 0.000000 0.0
-0.036190 -0.025331 0.0
-0.057806 -0.067997 0.0
-0.002027 -0.092204 0.0
0.096998 -0.058504 0.0
0.178823 0.047673 0.0
0.207151 0.133934 0.0
0.200658 0.208404 0.0
0.165881 0.271629 0.0
0.108230 0.321243 0.0
0.038114 0.350688 0.0
-0.028414 0.349651 0.0
-0.075525 0.306128 0.0
-0.093270 0.214879 0.0
-0.079281 0.084148 0.0
-0.039631 -0.063008 0.0
0.014697 -0.199977 0.0
0.073728 -0.307227 0.0
0.134729 -0.380360 0.0
0.201923 -0.412165 0.0
0.280064 -0.397026 0.0
0.371553 -0.335221 0.0
0.475471 -0.234974 0.0
0.587667 -0.111593 0.0
0.694303 0.009366 0.0
0.781214 0.107890 0.0
0.847610 0.186181 0.0
0.896698 0.248873 0.0
0.929897 0.297631 0.0
0.948478 0.333473 0.0
0.953788 0.357388 0.0
0.947098 0.370539 0.0
0.929302 0.374547 0.0
0.900550 0.372036 0.0
0.860414 0.366766 0.0
0.809548 0.361587 0.0
0.752479 0.353905 0.0
0.698496 0.333476 0.0
0.657746 0.288487 0.0
0.635321 0.215760 0.0
0.629637 0.123256 0.0
0.635860 0.023418 0.0
0.649245 -0.072488 0.0
0.666182 -0.157348 0.0
0.684083 -0.228241 0.0
0.701030 -0.284338 0.0
0.715747 -0.325871 0.0
0.727782 -0.353399 0.0
0.737715 -0.367076 0.0
0.747205 -0.366119 0.0
0.758617 -0.348896 0.0
0.774237 -0.313899 0.0
0.795420 -0.261199 0.0
0.822175 -0.193399 0.0
0.853290 -0.115494 0.0
0.886650 -0.033972 0.0
0.918953 0.042845 0.0
0.947096 0.109084 0.0
0.969460 0.162866 0.0
0.985188 0.203896 0.0
0.993922 0.232960 0.0
0.995638 0.251600 0.0
0.990560 0.261839 0.0
0.979158 0.265817 0.0
0.962217 0.265252 0.0
0.940919 0.260773 0.0
0.916843 0.251488 0.0
0.891787 0.235248 0.0
0.867463 0.209729 0.0
0.845242 0.173743 0.0
0.826084 0.127961 0.0
0.810641 0.074708 0.0
0.799373 0.017242 0.0
0.792545 -0.040948 0.0
0.790120 -0.096842 0.0
0.791736 -0.147782 0.0
0.796785 -0.191654 0.0
0.804502 -0.227012 0.0
0.814090 -0.253060 0.0
0.824858 -0.269524 0.0
0.836322 -0.276470 0.0
0.848249 -0.274150 0.0
0.860615 -0.262942 0.0
0.873487 -0.243425 0.0
0.886875 -0.216537 0.0
0.900614 -0.183714 0.0
0.914305 -0.146917 0.0
0.927317 -0.108510 0.0
0.938844 -0.071064 0.0
0.947795 -0.035356 0.0
0.998314 -0.011678 0.0
0.991371 -0.034985 0.0
0.976581 -0.059338 0.0
0.951828 -0.086046 0.0
0.913013 -0.116821 0.0
0.852224 -0.154003 0.0
0.752926 -0.200471 0.0
0.575534 -0.258707 0.0
0.230121 -0.314575 0.0
0.000000 0.273984 0.0
-0.000000 -0.000000 0.0
0.000000 0.000000 0.0
-0.039520 -0.041286 0.0
-0.084919 -0.127531 0.0
-0.095670 -0.111451 0.0
-0.087467 0.010593 0.0
-0.072246 0.127465 0.0
-0.078014 0.227135 0.0
-0.100986 0.310647 0.0
-0.133980 0.372869 0.0
-0.167535 0.402733 0.0
-0.191274 0.387871 0.0
-0.195849 0.319595 0.0
-0.174776 0.198083 0.0
-0.128076 0.040255 0.0
-0.069602 -0.117240 0.0
-0.013707 -0.255969 0.0
0.035951 -0.359925 0.0
0.080658 -0.433370 0.0
0.126118 -0.471809 0.0
0.180060 -0.469465 0.0
0.249088 -0.423299 0.0
0.335142 -0.336868 0.0
0.434727 -0.221481 0.0
0.540636 -0.093292 0.0
0.638743 0.025530 0.0
0.718327 0.122561 0.0
0.779956 0.201775 0.0
0.825550 0.265936 0.0
0.856047 0.316089 0.0
0.872284 0.353226 0.0
0.874944 0.378731 0.0
0.864328 0.394767 0.0
0.840386 0.404511 0.0
0.803736 0.411078 0.0
0.757818 0.414059 0.0
0.710386 0.405934 0.0
0.671409 0.374407 0.0
0.647832 0.311883 0.0
0.640391 0.222230 0.0
0.645552 0.117310 0.0
0.659100 0.009593 0.0
0.677435 -0.090383 0.0
0.697635 -0.176591 0.0
0.717469 -0.246733 0.0
0.735159 -0.300482 0.0
0.749396 -0.338682 0.0
0.759500 -0.362727 0.0
0.765678 -0.373860 0.0
0.769279 -0.372425 0.0
0.772742 -0.357465 0.0
0.779014 -0.327221 0.0
0.790530 -0.280576 0.0
0.808350 -0.218595 0.0
0.831956 -0.145018 0.0
0.859657 -0.065510 0.0
0.888730 0.013008 0.0
0.916050 0.083457 0.0
0.939343 0.142837 0.0
0.957318 0.190221 0.0
0.969249 0.225969 0.0
0.974806 0.251318 0.0
0.973987 0.268019 0.0
0.967120 0.277905 0.0
0.954924 0.282300 0.0
0.938538 0.281408 0.0
0.919435 0.274031 0.0
0.899197 0.258000 0.0
0.879232 0.231265 0.0
0.860622 0.193038 0.0
0.844154 0.144293 0.0
0.830465 0.087509 0.0
0.820121 0.026053 0.0
0.813550 -0.036360 0.0
0.810869 -0.096324 0.0
0.811823 -0.150872 0.0
0.815872 -0.197661 0.0
0.822275 -0.235125 0.0
0.830222 -0.262482 0.0
0.838961 -0.279609 0.0
0.847939 -0.286826 0.0
0.856882 -0.284664 0.0
0.865799 -0.273711 0.0
0.874876 -0.254607 0.0
0.884319 -0.228187 0.0
0.894183 -0.195667 0.0
0.904277 -0.158748 0.0
0.914147 -0.119561 0.0
0.923127 -0.080520 0.0
0.930291 -0.042014 0.0
0.998109 -0.008101 0.0
0.990358 -0.023866 0.0
0.973985 -0.039295 0.0
0.946975 -0.054327 0.0
0.905688 -0.068438 0.0
0.844091 -0.079999 0.0
0.752896 -0.083982 0.0
0.620929 -0.065835 0.0
0.449736 0.015197 0.0
0.178062 0.159430 0.0
0.000000 0.000000 0.0
-0.000000 -0.000000 0.0
0.000000 0.000000 0.0
-0.058779 -0.060826 0.0
-0.132113 -0.092024 0.0
-0.155794 0.006643 0.0
-0.168601 0.129000 0.0
-0.176092 0.238860 0.0
-0.184506 0.330308 0.0
-0.192846 0.394542 0.0
-0.196347 0.418116 0.0
-0.188616 0.388497 0.0
-0.162849 0.297778 0.0
-0.108381 0.144359 0.0
-0.033878 -0.027225 0.0
0.034873 -0.176985 0.0
0.086617 -0.303862 0.0
0.123646 -0.398719 0.0
0.150084 -0.465721 0.0
0.169401 -0.504235 0.0
0.189801 -0.511381 0.0
0.222146 -0.482756 0.0
0.274707 -0.416025 0.0
0.348426 -0.315629 0.0
0.436939 -0.193566 0.0
0.530153 -0.065516 0.0
0.614593 0.049583 0.0
0.682718 0.144999 0.0
0.735508 0.224328 0.0
0.773685 0.289022 0.0
0.797543 0.340200 0.0
0.807149 0.379491 0.0
0.802440 0.409331 0.0
0.783846 0.432483 0.0
0.753778 0.449823 0.0
0.718166 0.456842 0.0
0.685815 0.442934 0.0
0.664559 0.397639 0.0
0.657361 0.319426 0.0
0.662436 0.217053 0.0
0.676365 0.103397 0.0
0.696069 -0.009746 0.0
0.718626 -0.111935 0.0
0.741420 -0.198033 0.0
0.762496 -0.266201 0.0
0.780311 -0.316519 0.0
0.793728 -0.350299 0.0
0.802073 -0.369558 0.0
0.805302 -0.376436 0.0
0.804301 -0.372447 0.0
0.801134 -0.357738 0.0
0.798864 -0.330950 0.0
0.800719 -0.290220 0.0
0.808934 -0.234986 0.0
0.824005 -0.167304 0.0
0.844798 -0.091718 0.0
0.869092 -0.014150 0.0
0.893924 0.058462 0.0
0.916625 0.121839 0.0