# vtk DataFile Version 3.0
Vector Field
ASCII
DATASET RECTILINEAR_GRID
DIMENSIONS 100 26 1
X_COORDINATES 100 double
0.050000 0.150000 0.250000 0.350000 0.450000 0.550000 0.650000 0.750000 0.850000 0.950000 1.050000 1.150000 1.250000 1.350000 1.450000 1.550000 1.650000 1.750000 1.850000 1.950000 2.050000 2.150000 2.250000 2.350000 2.450000 2.550000 2.650000 2.750000 2.850000 2.950000 3.050000 3.150000 3.250000 3.350000 3.450000 3.550000 3.650000 3.750000 3.850000 3.950000 4.050000 4.150000 4.250000 4.350000 4.450000 4.550000 4.650000 4.750000 4.850000 4.950000 5.050000 5.150000 5.250000 5.350000 5.450000 5.550000 5.650000 5.750000 5.850000 5.950000 6.050000 6.150000 6.250000 6.350000 6.450000 6.550000 6.650000 6.750000 6.850000 6.950000 7.050000 7.150000 7.250000 7.350000 7.450000 7.550000 7.650000 7.750000 7.850000 7.950000 8.050000 8.150000 8.250000 8.350000 8.450000 8.550000 8.650000 8.750000 8.850000 8.950000 9.050000 9.150000 9.250000 9.350000 9.450000 9.550000 9.650000 9.750000 9.850000 9.950000 
Y_COORDINATES 26 double
0.050000 0.150000 0.250000 0.350000 0.450000 0.550000 0.650000 0.750000 0.850000 0.950000 1.050000 1.150000 1.250000 1.350000 1.450000 1.550000 1.650000 1.750000 1.850000 1.950000 2.050000 2.150000 2.250000 2.350000 2.450000 2.550000 
Z_COORDINATES 1 double
0.0
POINT_DATA 2600
VECTORS Vektorfeld double
1.000902 -0.000902 0.0
1.004967 -0.003162 0.0
1.013694 -0.005565 0.0
1.027242 -0.007984 0.0
1.045538 -0.010312 0.0
1.068265 -0.012415 0.0
1.094800 -0.014120 0.0
1.124143 -0.015223 0.0
1.154905 -0.015539 0.0
1.185399 -0.014955 0.0
1.213859 -0.013505 0.0
1.238721 -0.011357 0.0
1.258830 -0.008752 0.0
1.273525 -0.005942 0.0
1.282619 -0.003153 0.0
1.286349 -0.000577 0.0
1.285293 0.001632 0.0
1.280298 0.003363 0.0
1.272400 0.004535 0.0
1.262775 0.005090 0.0
1.252687 0.004998 0.0
1.243427 0.004262 0.0
1.236240 0.002925 0.0
1.232246 0.001068 0.0
1.232321 -0.001143 0.0
1.236901 -0.003437 0.0
1.245821 -0.005483 0.0
1.258222 -0.006918 0.0
1.272545 -0.007406 0.0
1.286695 -0.006744 0.0
1.298382 -0.004943 0.0
1.305573 -0.002248 0.0
1.306818 0.001002 0.0
1.301306 0.004509 0.0
1.288824 0.007973 0.0
1.269698 0.011153 0.0
1.244664 0.013882 0.0
1.214720 0.016062 0.0
1.181012 0.017645 0.0
1.144746 0.018621 0.0
1.107129 0.018996 0.0
1.069342 0.018791 0.0
1.032525 0.018026 0.0
0.997778 0.016721 0.0
0.966168 0.014889 0.0
0.938745 0.012534 0.0
0.916574 0.009638 0.0
0.900758 0.006177 0.0
0.892394 0.002187 0.0
0.892247 -0.002040 0.0
0.900434 -0.006147 0.0
0.916553 -0.009972 0.0
0.939883 -0.013359 0.0
0.969360 -0.016118 0.0
1.003503 -0.018025 0.0
1.040380 -0.018853 0.0
1.077632 -0.018400 0.0
1.112575 -0.016543 0.0
1.142439 -0.013322 0.0
1.164783 -0.009022 0.0
1.177998 -0.004194 0.0
1.181635 0.000556 0.0
1.176087 0.004991 0.0
1.162148 0.008948 0.0
1.140913 0.012288 0.0
1.113699 0.014926 0.0
1.081942 0.016830 0.0
1.047098 0.018014 0.0
1.010561 0.018522 0.0
0.973627 0.018412 0.0
0.937465 0.017750 0.0
0.903115 0.016601 0.0
0.871474 0.015040 0.0
0.843277 0.013158 0.0
0.819051 0.011067 0.0
0.799085 0.008899 0.0
0.783401 0.006785 0.0
0.771779 0.004837 0.0
0.763806 0.003137 0.0
0.758941 0.001728 0.0
0.756587 0.000627 0.0
0.756106 -0.000146 0.0
0.756840 -0.000588 0.0
0.758217 -0.000790 0.0
0.759856 -0.000849 0.0
0.761546 -0.000840 0.0
0.763196 -0.000810 0.0
0.764790 -0.000785 0.0
0.766354 -0.000779 0.0
0.767928 -0.000795 0.0
0.769553 -0.000830 0.0
0.771256 -0.000873 0.0
0.773044 -0.000915 0.0
0.774907 -0.000947 0.0
0.776815 -0.000961 0.0
0.778728 -0.000953 0.0
0.780611 -0.000929 0.0
0.782447 -0.000907 0.0
0.784273 -0.000919 0.0
0.786425 -0.001233 0.0
1.001454 -0.003259 0.0
1.006935 -0.010351 0.0
1.017504 -0.017672 0.0
1.033081 -0.025003 0.0
1.053575 -0.032081 0.0
1.078723 -0.038521 0.0
1.107965 -0.043791 0.0
1.140317 -0.047248 0.0
1.174315 -0.048274 0.0
1.208077 -0.046474 0.0
1.239587 -0.041956 0.0
1.267108 -0.035289 0.0
1.289433 -0.027254 0.0
1.305937 -0.018639 0.0
1.316517 -0.010130 0.0
1.321477 -0.002289 0.0
1.321437 0.004439 0.0
1.317272 0.009716 0.0
1.310068 0.013285 0.0
1.301060 0.014973 0.0
1.291568 0.014693 0.0
1.282944 0.012452 0.0
1.276488 0.008378 0.0
1.273354 0.002743 0.0
1.274441 -0.003981 0.0
1.280326 -0.011064 0.0
1.291072 -0.017522 0.0
1.305987 -0.022195 0.0
1.323520 -0.023985 0.0
1.341403 -0.022197 0.0
1.357033 -0.016808 0.0
1.367965 -0.008507 0.0
1.372361 0.001620 0.0
1.369279 0.012486 0.0
1.358627 0.023131 0.0
1.340913 0.032834 0.0
1.317040 0.041108 0.0
1.288141 0.047678 0.0
1.255458 0.052420 0.0
1.220253 0.055316 0.0
1.183767 0.056404 0.0
1.147191 0.055746 0.0
1.111667 0.053412 0.0
1.078283 0.049467 0.0
1.048068 0.043968 0.0
1.021975 0.036971 0.0
1.000812 0.028534 0.0
0.985150 0.018758 0.0
0.975263 0.007857 0.0
0.971388 -0.003688 0.0
0.974019 -0.015317 0.0
0.983682 -0.026584 0.0
1.000531 -0.036926 0.0
1.024176 -0.045672 0.0
1.053692 -0.052128 0.0
1.087690 -0.055625 0.0
1.124359 -0.055548 0.0
1.161458 -0.051436 0.0
1.196357 -0.043192 0.0
1.226208 -0.031346 0.0
1.248306 -0.017183 0.0
1.260673 -0.002459 0.0
1.262818 0.011409 0.0
1.255563 0.023725 0.0
1.240229 0.034081 0.0
1.218325 0.042251 0.0
1.191413 0.048173 0.0
1.161020 0.051910 0.0
1.128573 0.053610 0.0
1.095373 0.053458 0.0
1.062580 0.051659 0.0
1.031202 0.048420 0.0
1.002088 0.043976 0.0
0.975906 0.038601 0.0
0.953125 0.032631 0.0
0.933986 0.026442 0.0
0.918490 0.020421 0.0
0.906403 0.014908 0.0
0.897286 0.010156 0.0
0.890550 0.006309 0.0
0.885545 0.003405 0.0
0.881701 0.001400 0.0
0.878657 0.000175 0.0
0.876209 -0.000482 0.0
0.874195 -0.000781 0.0
0.872490 -0.000893 0.0
0.871029 -0.000945 0.0
0.869804 -0.001019 0.0
0.868853 -0.001158 0.0
0.868237 -0.001375 0.0
0.868021 -0.001660 0.0
0.868261 -0.001985 0.0
0.868986 -0.002317 0.0
0.870199 -0.002620 0.0
0.871869 -0.002865 0.0
0.873943 -0.003036 0.0
0.876348 -0.003134 0.0
0.879000 -0.003192 0.0
0.881813 -0.003273 0.0
0.884516 -0.003734 0.0
1.001348 -0.006062 0.0
1.006677 -0.018357 0.0
1.017275 -0.030831 0.0
1.033190 -0.043337 0.0
1.054488 -0.055538 0.0
1.081105 -0.066828 0.0
1.112657 -0.076278 0.0
1.148219 -0.082676 0.0
1.186145 -0.084771 0.0
1.224011 -0.081605 0.0
1.259091 -0.073417 0.0
1.289169 -0.061427 0.0
1.312904 -0.047175 0.0
1.329767 -0.032085 0.0
1.339834 -0.017330 0.0
1.343608 -0.003824 0.0
1.341906 0.007716 0.0
1.335764 0.016747 0.0
1.326368 0.022854 0.0
1.315036 0.025745 0.0
1.303182 0.025266 0.0
1.292272 0.021414 0.0
1.283769 0.014374 0.0
1.279093 0.004559 0.0
1.279518 -0.007309 0.0
1.285977 -0.020079 0.0
1.298762 -0.032038 0.0
1.317191 -0.041022 0.0
1.339376 -0.044876 0.0
1.362344 -0.042157 0.0
1.382605 -0.032737 0.0
1.397030 -0.017934 0.0
1.403647 0.000034 0.0
1.401769 0.019032 0.0
1.391606 0.037401 0.0
1.373940 0.053944 0.0
1.349909 0.067901 0.0
1.320817 0.078876 0.0
1.287994 0.086729 0.0
1.252725 0.091482 0.0
1.216209 0.093241 0.0
1.179551 0.092142 0.0
1.143762 0.088328 0.0
1.109763 0.081935 0.0
1.078373 0.073104 0.0
1.050310 0.061993 0.0
1.026188 0.048797 0.0
1.006581 0.033765 0.0
0.992121 0.017198 0.0
0.983543 -0.000575 0.0
0.981536 -0.019053 0.0
0.986478 -0.037453 0.0
0.998288 -0.054716 0.0
1.016499 -0.069738 0.0
1.040454 -0.081534 0.0
1.069442 -0.089205 0.0
1.102617 -0.091813 0.0
1.138754 -0.088407 0.0
1.175947 -0.078313 0.0
1.211468 -0.061597 0.0
1.241944 -0.039505 0.0
1.264024 -0.014584 0.0
1.275594 0.009819 0.0
1.276724 0.031440 0.0
1.268863 0.049559 0.0
1.253687 0.063853 0.0
1.232888 0.074281 0.0
1.208069 0.081015 0.0
1.180672 0.084350 0.0
1.151948 0.084642 0.0
1.122951 0.082265 0.0
1.094538 0.077604 0.0
1.067378 0.071066 0.0
1.041962 0.063108 0.0
1.018614 0.054252 0.0
0.997510 0.045065 0.0
0.978694 0.036111 0.0
0.962106 0.027892 0.0
0.947612 0.020783 0.0
0.935032 0.014998 0.0
0.924171 0.010582 0.0
0.914827 0.007413 0.0
0.906782 0.005252 0.0
0.899829 0.003843 0.0
0.893801 0.002936 0.0
0.888586 0.002308 0.0
0.884121 0.001780 0.0
0.880378 0.001224 0.0
0.877360 0.000569 0.0
0.875084 -0.000210 0.0
0.873570 -0.001096 0.0
0.872827 -0.002045 0.0
0.872840 -0.002995 0.0
0.873565 -0.003880 0.0
0.874928 -0.004639 0.0
0.876826 -0.005234 0.0
0.879136 -0.005651 0.0
0.881721 -0.005912 0.0
0.884429 -0.006073 0.0
0.887077 -0.006283 0.0
1.001306 -0.008717 0.0
1.006549 -0.026274 0.0
1.017148 -0.044112 0.0
1.033377 -0.062200 0.0
1.055605 -0.080202 0.0
1.084157 -0.097334 0.0
1.119055 -0.112222 0.0
1.159600 -0.122838 0.0
1.203999 -0.126933 0.0
1.248761 -0.122071 0.0
1.289613 -0.108882 0.0
1.323507 -0.089934 0.0
1.349069 -0.067966 0.0
1.366095 -0.045184 0.0
1.375040 -0.023243 0.0
1.376739 -0.003384 0.0
1.372255 0.013461 0.0
1.362797 0.026601 0.0
1.349716 0.035477 0.0
1.334492 0.039679 0.0
1.318707 0.038970 0.0
1.304015 0.033312 0.0
1.292101 0.022893 0.0
1.284659 0.008158 0.0
1.283369 -0.010043 0.0
1.289684 -0.030119 0.0
1.304396 -0.049495 0.0
1.327053 -0.064652 0.0
1.355519 -0.071896 0.0
1.385991 -0.068578 0.0
1.413655 -0.054241 0.0
1.433915 -0.031116 0.0
1.443856 -0.003342 0.0
1.442825 0.025316 0.0
1.431651 0.052454 0.0
1.411777 0.076431 0.0
1.384919 0.096304 0.0
1.352808 0.111677 0.0
1.317046 0.122511 0.0
1.279049 0.128966 0.0
1.240036 0.131286 0.0
1.201056 0.129736 0.0
1.163012 0.124567 0.0
1.126689 0.116018 0.0
1.092777 0.104322 0.0
1.061900 0.089716 0.0
1.034658 0.072438 0.0
1.011675 0.052713 0.0
0.993599 0.030786 0.0
0.980966 0.007047 0.0
0.974020 -0.017723 0.0
0.972592 -0.042298 0.0
0.976229 -0.065318 0.0
0.984549 -0.085666 0.0
0.997572 -0.102585 0.0
1.015782 -0.115351 0.0
1.039789 -0.122850 0.0
1.069798 -0.123515 0.0
1.105128 -0.115728 0.0
1.143919 -0.098494 0.0
1.183026 -0.072190 0.0
1.218168 -0.039121 0.0
1.244612 -0.003658 0.0
1.259509 0.028891 0.0
1.263280 0.056198 0.0
1.257840 0.077830 0.0
1.245148 0.093795 0.0
1.227051 0.104417 0.0
1.205197 0.110199 0.0
1.180986 0.111727 0.0
1.155556 0.109607 0.0
1.129788 0.104443 0.0
1.104334 0.096841 0.0
1.079651 0.087432 0.0
1.056051 0.076877 0.0
1.033742 0.065853 0.0
1.012872 0.055009 0.0
0.993550 0.044905 0.0
0.975853 0.035962 0.0
0.959823 0.028429 0.0
0.945458 0.022376 0.0
0.932706 0.017714 0.0
0.921466 0.014234 0.0
0.911608 0.011672 0.0
0.903001 0.009742 0.0
0.895537 0.008181 0.0
0.889143 0.006767 0.0
0.883783 0.005340 0.0
0.879449 0.003805 0.0
0.876149 0.002131 0.0
0.873883 0.000342 0.0
0.872638 -0.001495 0.0
0.872366 -0.003287 0.0
0.872985 -0.004933 0.0
0.874378 -0.006341 0.0
0.876394 -0.007446 0.0
0.878861 -0.008217 0.0
0.881596 -0.008666 0.0
0.884414 -0.008845 0.0
0.887154 -0.008899 0.0
1.001245 -0.011269 0.0
1.006283 -0.034002 0.0
1.016618 -0.057319 0.0
1.032805 -0.081408 0.0
1.055669 -0.106085 0.0
1.086187 -0.130522 0.0
1.125181 -0.152926 0.0
1.172607 -0.170106 0.0
1.227026 -0.178482 0.0
1.282722 -0.170981 0.0
1.331858 -0.149961 0.0
1.370293 -0.121184 0.0
1.397302 -0.089285 0.0
1.413619 -0.057208 0.0
1.420370 -0.026914 0.0
1.418830 0.000128 0.0
1.410311 0.022953 0.0
1.396143 0.040735 0.0
1.377814 0.052752 0.0
1.356987 0.058455 0.0
1.335457 0.057509 0.0
1.315094 0.049829 0.0
1.297782 0.035602 0.0
1.285389 0.015282 0.0
1.279866 -0.010353 0.0
1.283263 -0.039522 0.0
1.297168 -0.068708 0.0
1.321741 -0.092670 0.0
1.355095 -0.105697 0.0
1.393243 -0.103397 0.0
1.430467 -0.084309 0.0
1.460248 -0.051090 0.0
1.477294 -0.010354 0.0
1.479863 0.030789 0.0
1.469328 0.068689 0.0
1.448078 0.101319 0.0
1.418635 0.127716 0.0
1.383333 0.147679 0.0
1.344161 0.161443 0.0
1.302749 0.169443 0.0
1.260412 0.172159 0.0
1.218213 0.170042 0.0
1.177025 0.163492 0.0
1.137585 0.152856 0.0
1.100538 0.138442 0.0
1.066485 0.120527 0.0
1.035998 0.099356 0.0
1.009586 0.075188 0.0
0.987540 0.048433 0.0
0.969706 0.019867 0.0
0.955398 -0.009289 0.0
0.943751 -0.037656 0.0
0.934258 -0.064104 0.0
0.927276 -0.088219 0.0
0.924300 -0.110079 0.0
0.927564 -0.129331 0.0
0.939124 -0.144438 0.0
0.960042 -0.152854 0.0
0.990116 -0.151794 0.0
1.027986 -0.139090 0.0
1.071238 -0.113953 0.0
1.116370 -0.077631 0.0
1.158666 -0.033888 0.0
1.192259 0.010631 0.0
1.213746 0.049200 0.0
1.223860 0.080155 0.0
1.224515 0.103507 0.0
1.217613 0.119704 0.0
1.204925 0.129454 0.0
1.188021 0.133587 0.0
1.168233 0.132966 0.0
1.146637 0.128447 0.0
1.124067 0.120861 0.0
1.101147 0.111015 0.0
1.078340 0.099701 0.0
1.056002 0.087677 0.0
1.034419 0.075637 0.0
1.013842 0.064176 0.0
0.994482 0.053748 0.0
0.976506 0.044649 0.0
0.960025 0.037003 0.0
0.945081 0.030782 0.0
0.931659 0.025829 0.0
0.919697 0.021897 0.0
0.909121 0.018699 0.0
0.899863 0.015945 0.0
0.891883 0.013378 0.0
0.885167 0.010806 0.0
0.879724 0.008116 0.0
0.875570 0.005275 0.0
0.872709 0.002324 0.0
0.871116 -0.000638 0.0
0.870726 -0.003480 0.0
0.871424 -0.006056 0.0
0.873046 -0.008233 0.0
0.875390 -0.009914 0.0
0.878225 -0.011050 0.0
0.881311 -0.011654 0.0
0.884422 -0.011787 0.0
0.887368 -0.011643 0.0
1.001115 -0.013629 0.0
1.005660 -0.041224 0.0
1.015138 -0.069909 0.0
1.030409 -0.100276 0.0
1.052874 -0.132545 0.0
1.084475 -0.166181 0.0
1.127483 -0.199270 0.0
1.183431 -0.227137 0.0
1.253253 -0.245691 0.0
1.325742 -0.231957 0.0
1.384500 -0.196879 0.0
1.425585 -0.153785 0.0
1.451367 -0.109475 0.0
1.464735 -0.066703 0.0
1.467653 -0.027088 0.0
1.461580 0.007913 0.0
1.447762 0.037505 0.0
1.427470 0.060643 0.0
1.402277 0.076367 0.0
1.373998 0.083946 0.0
1.344618 0.082927 0.0
1.316219 0.073173 0.0
1.290873 0.054916 0.0
1.270453 0.028780 0.0
1.256577 -0.004451 0.0
1.251359 -0.043603 0.0
1.257330 -0.084502 0.0
1.275794 -0.119913 0.0
1.306102 -0.142116 0.0
1.345838 -0.144864 0.0
1.390500 -0.124728 0.0
1.432921 -0.082873 0.0
1.464118 -0.026814 0.0
1.477941 0.030857 0.0
1.474609 0.082488 0.0
1.457632 0.125748 0.0
1.430468 0.159892 0.0
1.396095 0.185178 0.0
1.356898 0.202314 0.0
1.314745 0.212138 0.0
1.271099 0.215447 0.0
1.227125 0.212927 0.0
1.183771 0.205149 0.0
1.141838 0.192573 0.0
1.102034 0.175576 0.0
1.065004 0.154477 0.0
1.031289 0.129607 0.0
1.001163 0.101475 0.0
0.974318 0.071038 0.0
0.949592 0.039823 0.0
0.925115 0.009539 0.0
0.899236 -0.018958 0.0
0.872209 -0.046282 0.0
0.846873 -0.073724 0.0
0.827568 -0.102292 0.0
0.818306 -0.131120 0.0
0.821190 -0.157092 0.0
0.836234 -0.176160 0.0
0.862239 -0.184568 0.0
0.897569 -0.179516 0.0
0.940376 -0.159587 0.0
0.988428 -0.125181 0.0
1.038725 -0.078932 0.0
1.086902 -0.026095 0.0
1.126720 0.024621 0.0
1.154685 0.066656 0.0
1.171681 0.099355 0.0
1.179284 0.123154 0.0
1.179106 0.138870 0.0
1.172681 0.147500 0.0
1.161404 0.150119 0.0
1.146493 0.147802 0.0
1.128974 0.141594 0.0
1.109690 0.132485 0.0
1.089326 0.121402 0.0
1.068445 0.109195 0.0
1.047522 0.096624 0.0
1.026962 0.084327 0.0
1.007108 0.072811 0.0
0.988239 0.062431 0.0
0.970559 0.053383 0.0
0.954195 0.045710 0.0
0.939207 0.039312 0.0
0.925607 0.033976 0.0
0.913385 0.029418 0.0
0.902539 0.025330 0.0
0.893086 0.021426 0.0
0.885070 0.017490 0.0
0.878550 0.013395 0.0
0.873579 0.009120 0.0
0.870187 0.004733 0.0
0.868354 0.000379 0.0
0.868000 -0.003754 0.0
0.868974 -0.007456 0.0
0.871057 -0.010540 0.0
0.873974 -0.012868 0.0
0.877419 -0.014376 0.0
0.881080 -0.015077 0.0
0.884667 -0.015061 0.0
0.887924 -0.014572 0.0
1.000874 -0.015618 0.0
1.004463 -0.047369 0.0
1.012104 -0.080883 0.0
1.024897 -0.117366 0.0
1.044805 -0.157827 0.0
1.074964 -0.202659 0.0
1.119932 -0.250768 0.0
1.184601 -0.296256 0.0
1.278102 -0.339895 0.0
1.373906 -0.306047 0.0
1.436605 -0.244247 0.0
1.470940 -0.181837 0.0
1.488217 -0.124482 0.0
1.494679 -0.071526 0.0
1.492287 -0.022791 0.0
1.481222 0.020754 0.0
1.461669 0.058034 0.0
1.434584 0.087491 0.0
1.401499 0.107798 0.0
1.364303 0.117991 0.0
1.325087 0.117478 0.0
1.286050 0.106058 0.0
1.249403 0.084025 0.0
1.217091 0.052404 0.0
1.189968 0.012925 0.0
1.168248 -0.034042 0.0
1.154413 -0.086201 0.0
1.152269 -0.134534 0.0
1.164669 -0.170202 0.0
1.193358 -0.185203 0.0
1.237265 -0.172958 0.0
1.290941 -0.130740 0.0
1.343888 -0.063091 0.0
1.382412 0.014787 0.0
1.400106 0.084196 0.0
1.400132 0.140991 0.0
1.386864 0.185082 0.0
1.363731 0.217494 0.0
1.333369 0.239557 0.0
1.297843 0.252573 0.0
1.258830 0.257670 0.0
1.217727 0.255781 0.0
1.175727 0.247650 0.0
1.133871 0.233861 0.0
1.093085 0.214877 0.0
1.054174 0.191117 0.0
1.017686 0.163169 0.0
0.983541 0.132184 0.0
0.950520 0.100196 0.0
0.916138 0.069773 0.0
0.877686 0.042518 0.0
0.834477 0.017152 0.0
0.789745 -0.010632 0.0
0.750591 -0.044884 0.0
0.724141 -0.085377 0.0
0.713133 -0.127764 0.0
0.716197 -0.166396 0.0
0.730707 -0.196411 0.0
0.754553 -0.214169 0.0
0.786421 -0.217112 0.0
0.825415 -0.203792 0.0
0.870579 -0.174190 0.0
0.920463 -0.130105 0.0
0.972757 -0.075393 0.0
1.023370 -0.016513 0.0
1.066234 0.036960 0.0
1.098213 0.080077 0.0
1.120114 0.112928 0.0
1.133094 0.136293 0.0
1.138384 0.151212 0.0
1.137214 0.158854 0.0
1.130762 0.160431 0.0
1.120111 0.157136 0.0
1.106230 0.150108 0.0
1.089970 0.140402 0.0
1.072074 0.128972 0.0
1.053187 0.116657 0.0
1.033870 0.104172 0.0
1.014596 0.092094 0.0
0.995755 0.080858 0.0
0.977645 0.070746 0.0
0.960476 0.061879 0.0
0.944388 0.054219 0.0
0.929471 0.047586 0.0
0.915801 0.041700 0.0
0.903464 0.036231 0.0
0.892573 0.030868 0.0
0.883268 0.025369 0.0
0.875695 0.019610 0.0
0.869978 0.013592 0.0
0.866192 0.007440 0.0
0.864329 0.001368 0.0
0.864288 -0.004347 0.0
0.865857 -0.009407 0.0
0.868733 -0.013547 0.0
0.872540 -0.016585 0.0
0.876881 -0.018443 0.0
0.881357 -0.019147 0.0
0.885601 -0.018822 0.0
0.889261 -0.017728 0.0
1.000490 -0.016981 0.0
1.002524 -0.051630 0.0
1.007015 -0.088756 0.0
1.015062 -0.130333 0.0
1.028864 -0.178570 0.0
1.052526 -0.235737 0.0
1.093396 -0.303528 0.0
1.162526 -0.377294 0.0
1.289533 -0.479364 0.0
1.408014 -0.380864 0.0
1.449076 -0.273191 0.0
1.453861 -0.192012 0.0
1.449951 -0.127674 0.0
1.445284 -0.070130 0.0
1.438107 -0.014617 0.0
1.424064 0.037689 0.0
1.401047 0.083669 0.0
1.369300 0.120689 0.0
1.330058 0.146927 0.0
1.284922 0.161194 0.0
1.235625 0.162787 0.0
1.183978 0.151434 0.0
1.131902 0.127372 0.0
1.081475 0.091795 0.0
1.034180 0.047952 0.0
0.987739 -0.000908 0.0
0.941092 -0.058853 0.0
0.904015 -0.122660 0.0
0.890285 -0.180745 0.0
0.906182 -0.219246 0.0
0.949615 -0.226255 0.0
1.013660 -0.195164 0.0
1.088898 -0.126852 0.0
1.162111 -0.033189 0.0
1.217596 0.058993 0.0
1.250459 0.133305 0.0
1.265703 0.190792 0.0
1.267014 0.233605 0.0
1.257078 0.263744 0.0
1.238085 0.282905 0.0
1.211956 0.292480 0.0
1.180429 0.293601 0.0
1.145079 0.287179 0.0
1.107333 0.273934 0.0
1.068472 0.254451 0.0
1.029544 0.229382 0.0
0.990908 0.200027 0.0
0.951306 0.169075 0.0
0.907292 0.140341 0.0
0.855050 0.116251 0.0
0.794958 0.094584 0.0
0.734571 0.068682 0.0
0.684995 0.032146 0.0
0.653024 -0.016537 0.0
0.638406 -0.072656 0.0
0.637200 -0.128271 0.0
0.645356 -0.177109 0.0
0.660387 -0.215238 0.0
0.681276 -0.240078 0.0
0.707919 -0.249713 0.0
0.740564 -0.242830 0.0
0.779334 -0.219086 0.0
0.823857 -0.179616 0.0
0.873018 -0.127336 0.0
0.924771 -0.066936 0.0
0.974912 -0.005623 0.0
1.017909 0.047685 0.0
1.051334 0.089995 0.0
1.075714 0.121865 0.0
1.091824 0.144240 0.0
1.100567 0.158252 0.0
1.102916 0.165135 0.0
1.099859 0.166141 0.0
1.092353 0.162492 0.0
1.081299 0.155333 0.0
1.067529 0.145708 0.0
1.051794 0.134542 0.0
1.034762 0.122636 0.0
1.017006 0.110658 0.0
0.999005 0.099136 0.0
0.981136 0.088447 0.0
0.963688 0.078794 0.0
0.946882 0.070198 0.0
0.930901 0.062504 0.0
0.915930 0.055422 0.0
0.902188 0.048589 0.0
0.889933 0.041657 0.0
0.879450 0.034368 0.0
0.871017 0.026617 0.0
0.864854 0.018464 0.0
0.861078 0.010129 0.0
0.859674 0.001946 0.0
0.860471 -0.005679 0.0
0.863143 -0.012317 0.0
0.867250 -0.017618 0.0
0.872296 -0.021367 0.0
0.877784 -0.023489 0.0
0.883242 -0.024036 0.0
0.888242 -0.023177 0.0
0.892331 -0.021123 0.0
0.999963 -0.017434 0.0
0.999838 -0.053086 0.0
0.999789 -0.091741 0.0
1.000474 -0.136079 0.0
1.003511 -0.189661 0.0
1.012653 -0.257451 0.0
1.036555 -0.346587 0.0
1.093994 -0.460803 0.0
1.251806 -0.680675 0.0
1.363511 -0.409739 0.0
1.323712 -0.245579 0.0
1.264925 -0.165621 0.0
1.226857 -0.112087 0.0
1.210442 -0.064635 0.0
1.205686 -0.008179 0.0
1.198176 0.052803 0.0
1.181276 0.108470 0.0
1.154245 0.154666 0.0
1.117328 0.189109 0.0
1.070995 0.210481 0.0
1.015599 0.218193 0.0
0.950740 0.212535 0.0
0.874324 0.194763 0.0
0.783641 0.165514 0.0
0.681977 0.123191 0.0
0.586781 0.065489 0.0
0.520424 -0.012246 0.0
0.495496 -0.107262 0.0
0.510195 -0.197112 0.0
0.553883 -0.262464 0.0
0.617766 -0.290352 0.0
0.696559 -0.273905 0.0
0.786286 -0.213076 0.0
0.882152 -0.116044 0.0
0.972317 -0.003802 0.0
1.042692 0.092863 0.0
1.091103 0.167579 0.0
1.121994 0.224617 0.0
1.137907 0.266754 0.0
1.140863 0.295932 0.0
1.132785 0.313661 0.0
1.115552 0.321181 0.0
1.090963 0.319537 0.0
1.060667 0.309618 0.0
1.026001 0.292292 0.0
0.987535 0.268935 0.0
0.944248 0.242397 0.0
0.893314 0.217242 0.0
0.832356 0.197146 0.0
0.763902 0.180141 0.0
0.697285 0.157403 0.0
0.644026 0.119510 0.0
0.610600 0.064321 0.0
0.595998 -0.002139 0.0
0.594679 -0.071117 0.0
0.601098 -0.135024 0.0
0.612010 -0.189424 0.0
0.626018 -0.231962 0.0
0.642911 -0.261137 0.0
0.663284 -0.275670 0.0
0.688178 -0.274411 0.0
0.718615 -0.256712 0.0
0.755130 -0.223028 0.0
0.797456 -0.175410 0.0
0.844420 -0.117578 0.0
0.893922 -0.054624 0.0
0.941587 0.006024 0.0
0.982610 0.057207 0.0
1.015340 0.097542 0.0
1.040034 0.127759 0.0
1.057188 0.148835 0.0
1.067474 0.161916 0.0
1.071668 0.168223 0.0
1.070600 0.168984 0.0
1.065113 0.165382 0.0
1.056025 0.158517 0.0
1.044107 0.149386 0.0
1.030060 0.138871 0.0
1.014504 0.127735 0.0
0.997960 0.116605 0.0
0.980858 0.105950 0.0
0.963549 0.096049 0.0
0.946337 0.086962 0.0
0.929526 0.078533 0.0
0.913459 0.070431 0.0
0.898542 0.062238 0.0
0.885244 0.053562 0.0
0.874044 0.044147 0.0
0.865368 0.033948 0.0
0.859513 0.023151 0.0
0.856588 0.012143 0.0
0.856486 0.001438 0.0
0.858875 -0.008358 0.0
0.863236 -0.016671 0.0
0.868961 -0.023096 0.0
0.875448 -0.027423 0.0
0.882138 -0.029613 0.0
0.888535 -0.029766 0.0
0.894194 -0.028104 0.0
0.898610 -0.024701 0.0
0.999349 -0.016746 0.0
0.996679 -0.050979 0.0
0.991143 -0.088263 0.0
0.982456 -0.131556 0.0
0.970444 -0.185209 0.0
0.955743 -0.256344 0.0
0.942125 -0.357977 0.0
0.945108 -0.509834 0.0
1.052155 -0.896504 0.0
1.057943 -0.201960 0.0
0.871484 -0.105800 0.0
0.733669 -0.096939 0.0
0.668489 -0.077522 0.0
0.649789 -0.064084 0.0
0.669157 -0.023343 0.0
0.695125 0.049510 0.0
0.707114 0.116675 0.0
0.704800 0.175807 0.0
0.685097 0.224588 0.0
0.644727 0.261705 0.0
0.580626 0.286466 0.0
0.491905 0.297843 0.0
0.384210 0.293565 0.0
0.274503 0.267103 0.0
0.188455 0.209314 0.0
0.146274 0.116743 0.0
0.151895 -0.002765 0.0
0.189715 -0.129635 0.0
0.240847 -0.240570 0.0
0.299654 -0.321501 0.0
0.367208 -0.362752 0.0
0.445082 -0.358173 0.0
0.533532 -0.306985 0.0
0.631099 -0.215568 0.0
0.734216 -0.097559 0.0
0.829936 0.020524 0.0
0.905763 0.115679 0.0
0.961756 0.189633 0.0
1.000815 0.246766 0.0
1.024563 0.289216 0.0
1.034560 0.318459 0.0
1.032449 0.335726 0.0
1.019884 0.342146 0.0
0.998328 0.338861 0.0
0.968664 0.327379 0.0
0.930575 0.310403 0.0
0.882414 0.292377 0.0
0.823010 0.277601 0.0
0.755401 0.265354 0.0
0.688763 0.247025 0.0
0.634585 0.211313 0.0
0.599708 0.153735 0.0
0.583488 0.079741 0.0
0.580983 -0.000452 0.0
0.586927 -0.077429 0.0
0.597349 -0.145553 0.0
0.609749 -0.202207 0.0
0.622819 -0.246256 0.0
0.636253 -0.277170 0.0
0.650695 -0.294453 0.0
0.667564 -0.297392 0.0
0.688631 -0.285234 0.0
0.715395 -0.257784 0.0
0.748530 -0.216116 0.0
0.787630 -0.162937 0.0
0.831273 -0.102409 0.0
0.877100 -0.039682 0.0
0.920760 0.018231 0.0
0.958340 0.066209 0.0
0.988803 0.103936 0.0
1.012186 0.132120 0.0
1.028806 0.151726 0.0
1.039167 0.163858 0.0
1.043899 0.169684 0.0
1.043700 0.170368 0.0
1.039292 0.167027 0.0
1.031384 0.160703 0.0
1.020638 0.152346 0.0
1.007653 0.142802 0.0
0.992949 0.132786 0.0
0.976976 0.122844 0.0
0.960142 0.113298 0.0
0.942858 0.104208 0.0
0.925591 0.095364 0.0
0.908905 0.086353 0.0
0.893461 0.076676 0.0
0.879968 0.065915 0.0
0.869091 0.053870 0.0
0.861346 0.040645 0.0
0.857006 0.026649 0.0
0.856053 0.012522 0.0
0.858179 -0.000965 0.0
0.862796 -0.012961 0.0
0.869170 -0.022802 0.0
0.876579 -0.030100 0.0
0.884380 -0.034708 0.0
0.892028 -0.036666 0.0
0.899059 -0.036141 0.0
0.905075 -0.033405 0.0
0.909589 -0.028331 0.0
0.998755 -0.014849 0.0
0.993620 -0.045072 0.0
0.982716 -0.077729 0.0
0.964611 -0.115297 0.0
0.936651 -0.161497 0.0
0.893968 -0.222673 0.0
0.826987 -0.311050 0.0
0.718079 -0.450836 0.0
0.325169 -0.779082 0.0
-0.483087 0.280578 0.0
-0.483087 0.000000 0.0
-0.037922 -0.026532 0.0
-0.060775 -0.071287 0.0
-0.003200 -0.109194 0.0
0.096006 -0.096809 0.0
0.189780 0.003234 0.0
0.244007 0.096735 0.0
0.263702 0.178365 0.0
0.255166 0.250268 0.0
0.219698 0.311863 0.0
0.160074 0.360033 0.0
0.085689 0.387383 0.0
0.013379 0.384029 0.0
-0.038567 0.338292 0.0
-0.058731 0.244337 0.0
-0.045682 0.110852 0.0
-0.004536 -0.043641 0.0
0.049818 -0.180933 0.0
0.103948 -0.294534 0.0
0.157292 -0.379686 0.0
0.213854 -0.428682 0.0
0.278602 -0.434866 0.0
0.355081 -0.395223 0.0
0.443728 -0.313545 0.0
0.542009 -0.200979 0.0
0.644463 -0.074229 0.0
0.737425 0.041643 0.0
0.811143 0.133957 0.0
0.867069 0.207457 0.0
0.906883 0.264962 0.0
0.931707 0.307893 0.0
0.942718 0.337392 0.0
0.941100 0.354664 0.0
0.927746 0.361253 0.0
0.902811 0.359587 0.0
0.865548 0.353547 0.0
0.815498 0.347445 0.0
0.755371 0.342064 0.0
0.693238 0.330633 0.0
0.640251 0.301371 0.0
0.604480 0.246916 0.0
0.587013 0.170475 0.0
0.583889 0.082345 0.0
0.590187 -0.006848 0.0
0.601918 -0.088709 0.0
0.616128 -0.158905 0.0
0.630692 -0.215820 0.0
0.644154 -0.259175 0.0
0.655820 -0.289352 0.0
0.665949 -0.306841 0.0
0.675837 -0.311763 0.0
0.687622 -0.303715 0.0
0.703689 -0.282133 0.0
0.725866 -0.247081 0.0
0.754808 -0.200015 0.0
0.789835 -0.144000 0.0
0.829207 -0.083290 0.0
0.870253 -0.022867 0.0
0.908922 0.031058 0.0
0.942205 0.075342 0.0
0.969416 0.110120 0.0
0.990456 0.136065 0.0
1.005523 0.154091 0.0
1.014998 0.165244 0.0
1.019383 0.170622 0.0
1.019241 0.171322 0.0
1.015155 0.168402 0.0
1.007691 0.162856 0.0
0.997378 0.155590 0.0
0.984700 0.147380 0.0
0.970119 0.138803 0.0
0.954120 0.130172 0.0
0.937267 0.121473 0.0
0.920249 0.112384 0.0
0.903896 0.102371 0.0
0.889126 0.090872 0.0
0.876838 0.077502 0.0
0.867773 0.062225 0.0
0.862392 0.045416 0.0
0.860800 0.027811 0.0
0.862745 0.010368 0.0
0.867630 -0.005822 0.0
0.874624 -0.019715 0.0
0.882877 -0.030675 0.0
0.891655 -0.038414 0.0
0.900359 -0.042900 0.0
0.908514 -0.044277 0.0
0.915740 -0.042787 0.0
0.921722 -0.038756 0.0
0.926057 -0.031830 0.0
0.998310 -0.011913 0.0
0.991347 -0.035912 0.0
0.976521 -0.061159 0.0
0.951709 -0.088950 0.0
0.912808 -0.120982 0.0
0.851886 -0.159581 0.0
0.752416 -0.207691 0.0
0.574861 -0.267732 0.0
0.229749 -0.327492 0.0
0.000000 0.280578 0.0
-0.000000 -0.000000 0.0
0.000000 0.000000 0.0
-0.041611 -0.043178 0.0
-0.087847 -0.147075 0.0
-0.094428 -0.151553 0.0
-0.079870 -0.050354 0.0
-0.052340 0.068565 0.0
-0.039679 0.174179 0.0
-0.045563 0.268876 0.0
-0.067868 0.351029 0.0
-0.100418 0.413041 0.0
-0.133440 0.441781 0.0
-0.155613 0.424113 0.0
-0.156442 0.350982 0.0
-0.129861 0.225232 0.0
-0.077274 0.064321 0.0
-0.013753 -0.101777 0.0
0.043752 -0.234656 0.0
0.091728 -0.342917 0.0
0.132243 -0.425162 0.0
0.169260 -0.476785 0.0
0.210047 -0.492297 0.0
0.262401 -0.466625 0.0
0.330735 -0.399125 0.0
0.413954 -0.296898 0.0
0.506785 -0.173596 0.0
0.601039 -0.046206 0.0
0.684269 0.064858 0.0
0.750098 0.154802 0.0
0.800190 0.227712 0.0
0.835326 0.285183 0.0
0.856111 0.328306 0.0
0.863051 0.358429 0.0
0.856296 0.377596 0.0
0.835509 0.388967 0.0
0.800555 0.396383 0.0
0.753537 0.401676 0.0
0.700929 0.400567 0.0
0.652809 0.382383 0.0
0.618118 0.337298 0.0
0.600078 0.264801 0.0
0.596412 0.173723 0.0
0.602946 0.075688 0.0
0.616036 -0.019578 0.0
0.632751 -0.104425 0.0
0.650689 -0.175336 0.0
0.667924 -0.231189 0.0
0.682901 -0.272245 0.0
0.694566 -0.299614 0.0
0.702607 -0.314748 0.0
0.707733 -0.318869 0.0
0.711811 -0.312472 0.0
0.717597 -0.295229 0.0
0.727971 -0.266536 0.0
0.744964 -0.226495 0.0
0.769112 -0.176696 0.0
0.799432 -0.120289 0.0
0.833898 -0.061380 0.0
0.869515 -0.004716 0.0
0.902754 0.044593 0.0
0.931439 0.084974 0.0
0.954965 0.116644 0.0
0.973170 0.140240 0.0
0.986159 0.156631 0.0
0.994202 0.166808 0.0
0.997665 0.171815 0.0
0.996967 0.172693 0.0
0.992542 0.170454 0.0
0.984824 0.166024 0.0
0.974261 0.160187 0.0
0.961350 0.153487 0.0
0.946695 0.146142 0.0
0.931055 0.137996 0.0
0.915366 0.128567 0.0
0.900697 0.117211 0.0
0.888129 0.103370 0.0
0.878607 0.086814 0.0
0.872780 0.067804 0.0
0.870906 0.047093 0.0
0.872829 0.025803 0.0
0.878026 0.005234 0.0
0.885641 -0.013187 0.0
0.894705 -0.028408 0.0
0.904392 -0.039922 0.0
0.914039 -0.047592 0.0
0.923143 -0.051529 0.0
0.931329 -0.051989 0.0
0.938323 -0.049294 0.0
0.943915 -0.043823 0.0
0.947822 -0.035005 0.0
0.998101 -0.008324 0.0
0.990311 -0.024750 0.0
0.973855 -0.041039 0.0
0.946707 -0.057112 0.0
0.905212 -0.072424 0.0
0.843272 -0.085277 0.0
0.751553 -0.090807 0.0
0.618814 -0.074323 0.0
0.444751 0.004391 0.0
0.174366 0.155911 0.0
0.000000 0.000000 0.0
-0.000000 -0.000000 0.0
0.000000 0.000000 0.0
-0.068729 -0.071225 0.0
-0.149777 -0.137277 0.0
-0.169138 -0.059826 0.0
-0.175439 0.056808 0.0
-0.173499 0.171336 0.0
-0.172905 0.277009 0.0
-0.175449 0.367745 0.0
-0.178322 0.431748 0.0
-0.175928 0.453701 0.0
-0.161995 0.420435 0.0
-0.125896 0.319390 0.0
-0.057224 0.161571 0.0
0.026241 -0.008071 0.0
0.095313 -0.161977 0.0
0.147721 -0.284368 0.0
0.188369 -0.381828 0.0
0.215767 -0.454165 0.0
0.231996 -0.501028 0.0
0.243738 -0.520584 0.0
0.261465 -0.508419 0.0
0.295489 -0.459689 0.0
0.350452 -0.374515 0.0
0.423083 -0.261443 0.0
0.505216 -0.134746 0.0
0.586236 -0.010851 0.0
0.656045 0.094873 0.0
0.711092 0.182502 0.0
0.752050 0.254298 0.0
0.778980 0.311475 0.0
0.791705 0.355596 0.0
0.789848 0.389040 0.0
0.773277 0.414881 0.0
0.743421 0.435278 0.0
0.705037 0.448184 0.0
0.666431 0.445274 0.0
0.636423 0.415804 0.0
0.619928 0.355062 0.0
0.616613 0.268392 0.0
0.623440 0.166971 0.0
0.637440 0.061908 0.0
0.656093 -0.037541 0.0
0.676989 -0.124074 0.0
0.698041 -0.194677 0.0
0.717500 -0.248542 0.0
0.733923 -0.286291 0.0
0.746204 -0.309513 0.0
0.753678 -0.320364 0.0
0.756370 -0.321071 0.0
0.755342 -0.313320 0.0
0.752892 -0.297717 0.0
0.752243 -0.273772 0.0
0.756624 -0.240632 0.0
0.768156 -0.198238 0.0
0.787207 -0.148119 0.0
0.812513 -0.093321 0.0
0.841803 -0.037682 0.0
0.871893 0.014230 0.0
0.899793 0.058752 0.0
0.923967 0.095166 0.0