# vtk DataFile Version 3.0
Scalar Field
ASCII
DATASET RECTILINEAR_GRID
DIMENSIONS 100 26 1
X_COORDINATES 100 double
0.050000 0.150000 0.250000 0.350000 0.450000 0.550000 0.650000 0.750000 0.850000 0.950000 1.050000 1.150000 1.250000 1.350000 1.450000 1.550000 1.650000 1.750000 1.850000 1.950000 2.050000 2.150000 2.250000 2.350000 2.450000 2.550000 2.650000 2.750000 2.850000 2.950000 3.050000 3.150000 3.250000 3.350000 3.450000 3.550000 3.650000 3.750000 3.850000 3.950000 4.050000 4.150000 4.250000 4.350000 4.450000 4.550000 4.650000 4.750000 4.850000 4.950000 5.050000 5.150000 5.250000 5.350000 5.450000 5.550000 5.650000 5.750000 5.850000 5.950000 6.050000 6.150000 6.250000 6.350000 6.450000 6.550000 6.650000 6.750000 6.850000 6.950000 7.050000 7.150000 7.250000 7.350000 7.450000 7.550000 7.650000 7.750000 7.850000 7.950000 8.050000 8.150000 8.250000 8.350000 8.450000 8.550000 8.650000 8.750000 8.850000 8.950000 9.050000 9.150000 9.250000 9.350000 9.450000 9.550000 9.650000 9.750000 9.850000 9.950000 
Y_COORDINATES 26 double
0.050000 0.150000 0.250000 0.350000 0.450000 0.550000 0.650000 0.750000 0.850000 0.950000 1.050000 1.150000 1.250000 1.350000 1.450000 1.550000 1.650000 1.750000 1.850000 1.950000 2.050000 2.150000 2.250000 2.350000 2.450000 2.550000 
Z_COORDINATES 1 double
0.0
POINT_DATA 2600
SCALARS Skalarfeld double 1
LOOKUP_TABLE default
0.169742
0.165722
0.157105
0.143468
0.124548
0.100207
0.070526
0.035940
-0.002621
-0.043675
-0.085265
-0.125243
-0.161606
-0.192724
-0.217451
-0.235138
-0.245560
-0.248819
-0.245487
-0.236395
-0.222556
-0.205075
-0.185079
-0.163644
-0.141765
-0.120336
-0.100159
-0.081980
-0.066327
-0.053796
-0.044830
-0.039566
-0.037692
-0.038378
-0.040385
-0.042349
-0.043045
-0.041467
-0.037396
-0.031040
-0.022901
-0.013641
-0.003943
0.005580
0.014443
0.022325
0.029066
0.034666
0.039261
0.043094
0.046477
0.049735
0.053116
0.056874
0.061139
0.065678
0.070187
0.074279
0.077490
0.079290
0.079146
0.076651
0.071716
0.064751
0.056724
0.048982
0.042850
0.039374
0.038864
0.040893
0.044696
0.049341
0.053942
0.057833
0.060689
0.062557
0.063801
0.064950
0.066505
0.068772
0.071778
0.075460
0.079686
0.084276
0.089237
0.094702
0.100861
0.107905
0.115982
0.125172
0.135476
0.146830
0.159141
0.172349
0.186482
0.201718
0.218385
0.236904
0.257603
0.287303
0.173381
0.170221
0.161830
0.148133
0.128909
0.103967
0.073316
0.037356
-0.002939
-0.045919
-0.089350
-0.130838
-0.168269
-0.200029
-0.225038
-0.242706
-0.252856
-0.255611
-0.251565
-0.241586
-0.226731
-0.208154
-0.187029
-0.164479
-0.141536
-0.119126
-0.098069
-0.079093
-0.062985
-0.050370
-0.041708
-0.037130
-0.036259
-0.038138
-0.041342
-0.044284
-0.045644
-0.044437
-0.040443
-0.033939
-0.025516
-0.015905
-0.005842
0.004029
0.013208
0.021367
0.028348
0.034155
0.038927
0.042911
0.046421
0.049791
0.053335
0.057148
0.061184
0.065349
0.069410
0.073039
0.075823
0.077280
0.076899
0.074268
0.069252
0.062180
0.053930
0.045842
0.039442
0.035876
0.035299
0.037374
0.041334
0.046220
0.051114
0.055329
0.058530
0.060765
0.062396
0.063938
0.065861
0.068439
0.071721
0.075500
0.079547
0.083892
0.088575
0.093758
0.099638
0.106411
0.114225
0.123161
0.133220
0.144337
0.156428
0.169437
0.183405
0.198520
0.215139
0.233759
0.254944
0.288511
0.182790
0.179847
0.171559
0.157727
0.137985
0.111950
0.079420
0.040655
-0.003313
-0.050491
-0.097922
-0.142617
-0.182247
-0.215275
-0.240809
-0.258429
-0.268039
-0.269741
-0.264212
-0.252391
-0.235416
-0.214536
-0.191023
-0.166100
-0.140892
-0.116407
-0.093546
-0.073149
-0.056122
-0.043265
-0.035182
-0.032046
-0.033366
-0.037894
-0.043776
-0.048988
-0.051927
-0.051493
-0.047608
-0.040751
-0.031691
-0.021303
-0.010419
0.000260
0.010208
0.019089
0.026745
0.033179
0.038524
0.043012
0.046918
0.050523
0.054069
0.057713
0.061439
0.065120
0.068573
0.071538
0.073682
0.074589
0.073778
0.070819
0.065512
0.058079
0.049287
0.040411
0.033015
0.028537
0.027663
0.029710
0.033924
0.039332
0.044980
0.050136
0.054414
0.057794
0.060545
0.063067
0.065718
0.068695
0.072020
0.075596
0.079331
0.083211
0.087393
0.092058
0.097408
0.103658
0.110962
0.119412
0.129012
0.139703
0.151397
0.164045
0.177689
0.192525
0.208937
0.227509
0.249036
0.284062
0.197559
0.194708
0.186519
0.172584
0.152248
0.124737
0.089404
0.046152
-0.003991
-0.058483
-0.112696
-0.162477
-0.205300
-0.239979
-0.266049
-0.283376
-0.291932
-0.291895
-0.283999
-0.269264
-0.248950
-0.224455
-0.197210
-0.168598
-0.139887
-0.112210
-0.086566
-0.063874
-0.045321
-0.032022
-0.024879
-0.024190
-0.029286
-0.038396
-0.048876
-0.057838
-0.063001
-0.063475
-0.059470
-0.051803
-0.041549
-0.029808
-0.017556
-0.005568
0.005600
0.015604
0.024287
0.031648
0.037805
0.042956
0.047339
0.051195
0.054731
0.058085
0.061392
0.064529
0.067268
0.069421
0.070766
0.070988
0.069665
0.066371
0.060850
0.053205
0.044040
0.034477
0.025996
0.020066
0.018182
0.019981
0.024325
0.030279
0.036849
0.043232
0.048939
0.053816
0.057980
0.061680
0.065163
0.068585
0.071996
0.075375
0.078702
0.082015
0.085459
0.089282
0.093830
0.099334
0.105892
0.113638
0.122599
0.132719
0.143908
0.156108
0.169352
0.183822
0.199895
0.218169
0.239496
0.273709
0.217511
0.214800
0.206901
0.193149
0.172449
0.143364
0.104389
0.054585
-0.005297
-0.072115
-0.137025
-0.193833
-0.240349
-0.276512
-0.302743
-0.319262
-0.326063
-0.323457
-0.312135
-0.293196
-0.268079
-0.238409
-0.205856
-0.172031
-0.138408
-0.106293
-0.076797
-0.050849
-0.029994
-0.015946
-0.010157
-0.013180
-0.024093
-0.040333
-0.058009
-0.072764
-0.080995
-0.082175
-0.077427
-0.068099
-0.055749
-0.041818
-0.027473
-0.013575
-0.000703
0.010807
0.020809
0.029308
0.036416
0.042315
0.047223
0.051359
0.054897
0.057930
0.060446
0.062813
0.064658
0.065776
0.066109
0.065521
0.063705
0.060267
0.054897
0.047555
0.038634
0.029024
0.020027
0.013104
0.009507
0.010494
0.014587
0.020780
0.028051
0.035517
0.042561
0.048874
0.054402
0.059247
0.063555
0.067449
0.070992
0.074201
0.077098
0.079760
0.082374
0.085230
0.088663
0.093079
0.098705
0.105597
0.113806
0.123278
0.133917
0.145644
0.158465
0.172525
0.188152
0.205887
0.226507
0.258640
0.242390
0.239968
0.232792
0.219898
0.199605
0.169452
0.126372
0.067515
-0.007607
-0.096062
-0.177129
-0.241974
-0.291083
-0.327394
-0.352914
-0.367921
-0.372256
-0.366231
-0.350269
-0.325579
-0.293889
-0.257173
-0.217444
-0.176628
-0.136495
-0.098602
-0.064244
-0.034323
-0.010246
0.005118
0.009399
0.001691
-0.016722
-0.042363
-0.069939
-0.093218
-0.106546
-0.108341
-0.102105
-0.090099
-0.074616
-0.057565
-0.040350
-0.023922
-0.008864
0.004508
0.016082
0.025884
0.034040
0.040737
0.046190
0.050600
0.054097
0.056702
0.058351
0.058978
0.059395
0.059173
0.058282
0.056891
0.054821
0.051678
0.047056
0.040747
0.032908
0.024150
0.015515
0.008294
0.003691
0.003015
0.006520
0.012451
0.019901
0.027957
0.035900
0.043272
0.049860
0.055623
0.060613
0.064900
0.068533
0.071536
0.073945
0.075869
0.077535
0.079298
0.081575
0.084760
0.089283
0.095220
0.102623
0.111427
0.121518
0.132789
0.145202
0.158842
0.173957
0.190984
0.210561
0.240026
0.271662
0.269772
0.264023
0.253178
0.234905
0.205362
0.158844
0.088308
-0.011276
-0.140687
-0.243709
-0.312984
-0.359443
-0.392515
-0.416338
-0.429823
-0.431759
-0.421847
-0.400061
-0.367918
-0.327674
-0.281829
-0.232867
-0.183141
-0.134816
-0.089851
-0.049956
-0.016415
0.011222
0.028776
0.031999
0.019775
-0.005890
-0.040633
-0.078325
-0.111671
-0.133664
-0.138224
-0.130510
-0.115526
-0.096510
-0.075944
-0.055509
-0.036250
-0.018761
-0.003334
0.009945
0.021130
0.030364
0.037849
0.043799
0.048379
0.051634
0.053475
0.053788
0.052635
0.050373
0.048338
0.046257
0.044425
0.042632
0.040399
0.037207
0.032681
0.026747
0.019730
0.012379
0.005761
0.001027
-0.000875
0.001384
0.006494
0.013498
0.021491
0.029699
0.037556
0.044715
0.051010
0.056392
0.060864
0.064437
0.067116
0.068938
0.070028
0.070663
0.071263
0.072331
0.074340
0.077677
0.082614
0.089193
0.097338
0.106909
0.117762
0.129802
0.143038
0.157614
0.173842
0.192192
0.218779
0.304349
0.303303
0.299922
0.292859
0.279334
0.254098
0.207676
0.124516
-0.016637
-0.229895
-0.351962
-0.407569
-0.438443
-0.462547
-0.485148
-0.500813
-0.502847
-0.489767
-0.461528
-0.420614
-0.370209
-0.313541
-0.253689
-0.193528
-0.135730
-0.082786
-0.037106
-0.000971
0.025197
0.045598
0.048288
0.032726
0.002674
-0.036524
-0.079053
-0.118267
-0.147192
-0.160648
-0.153962
-0.137698
-0.116485
-0.093456
-0.070585
-0.049049
-0.029504
-0.012274
0.002534
0.014959
0.025139
0.033261
0.039504
0.043943
0.046472
0.046874
0.045100
0.041559
0.037134
0.032994
0.030164
0.028530
0.027674
0.026984
0.025830
0.023699
0.020316
0.015740
0.010428
0.005181
0.000995
-0.001202
-0.000589
0.003490
0.009543
0.016845
0.024654
0.032355
0.039511
0.045852
0.051234
0.055585
0.058859
0.061031
0.062124
0.062280
0.061814
0.061214
0.061053
0.061871
0.064073
0.067991
0.073749
0.081259
0.090354
0.100838
0.112549
0.125405
0.139439
0.154821
0.171859
0.195550
0.338904
0.339017
0.338998
0.337741
0.332698
0.318210
0.281516
0.193672
-0.018726
-0.422242
-0.512837
-0.506423
-0.504017
-0.513297
-0.537242
-0.566099
-0.575766
-0.562437
-0.528873
-0.479792
-0.419651
-0.352473
-0.281973
-0.211660
-0.144867
-0.084719
-0.034362
0.002607
0.024086
0.033558
0.033074
0.018107
-0.007885
-0.041544
-0.078957
-0.115160
-0.144430
-0.161952
-0.163111
-0.148616
-0.128137
-0.105190
-0.081952
-0.059740
-0.039340
-0.021196
-0.005520
0.007636
0.018332
0.026678
0.032741
0.036428
0.037463
0.035628
0.031191
0.025151
0.018953
0.013830
0.011018
0.010276
0.010980
0.012377
0.013729
0.014407
0.013976
0.012277
0.009496
0.006170
0.003096
0.001131
0.000961
0.003582
0.008301
0.014420
0.021263
0.028223
0.034817
0.040703
0.045655
0.049529
0.052219
0.053657
0.053850
0.052950
0.051308
0.049461
0.048045
0.047653
0.048732
0.051637
0.056589
0.063499
0.072164
0.082329
0.093752
0.106250
0.119737
0.134245
0.149924
0.170771
0.373213
0.374684
0.378706
0.384853
0.391883
0.396239
0.387411
0.331933
0.080829
-0.780891
-0.694965
-0.559232
-0.528774
-0.524447
-0.548189
-0.594922
-0.626966
-0.618469
-0.584489
-0.532436
-0.467665
-0.394749
-0.318044
-0.241948
-0.171138
-0.110332
-0.063430
-0.032486
-0.017070
-0.014002
-0.018311
-0.027316
-0.041897
-0.061616
-0.085130
-0.109800
-0.131718
-0.146723
-0.151881
-0.144293
-0.127507
-0.107512
-0.086457
-0.065719
-0.046214
-0.028552
-0.013122
-0.000140
0.010301
0.018154
0.023300
0.025447
0.024235
0.019648
0.012490
0.004378
-0.002891
-0.008067
-0.010059
-0.009239
-0.006402
-0.002449
0.001758
0.005484
0.008176
0.009515
0.009474
0.008354
0.006747
0.005398
0.004996
0.006220
0.009587
0.014260
0.019752
0.025525
0.031098
0.036089
0.040214
0.043262
0.045073
0.045538
0.044643
0.042546
0.039625
0.036459
0.033733
0.032098
0.032061
0.033922
0.038077
0.044419
0.052698
0.062588
0.073749
0.085891
0.098807
0.112398
0.126670
0.144714
0.404807
0.407590
0.415575
0.429228
0.449298
0.476607
0.511122
0.547740
0.622878
-0.079006
-0.614998
-0.535031
-0.530751
-0.529231
-0.546684
-0.587059
-0.627740
-0.633598
-0.605696
-0.559063
-0.498638
-0.429151
-0.355689
-0.283753
-0.219377
-0.167612
-0.131436
-0.110389
-0.100580
-0.097740
-0.094759
-0.091588
-0.090247
-0.091980
-0.097336
-0.105817
-0.115559
-0.123670
-0.127315
-0.124852
-0.114456
-0.099421
-0.082620
-0.065311
-0.048461
-0.032821
-0.018963
-0.007299
0.001880
0.008320
0.011681
0.011503
0.007463
-0.000074
-0.009707
-0.019350
-0.027058
-0.031651
-0.032127
-0.029113
-0.023596
-0.016665
-0.009333
-0.002445
0.003363
0.007673
0.010322
0.011436
0.011429
0.010931
0.010631
0.011139
0.013003
0.016121
0.020072
0.024394
0.028638
0.032413
0.035397
0.037331
0.038004
0.037270
0.035100
0.031655
0.027334
0.022750
0.018631
0.015685
0.014483
0.015299
0.018660
0.024453
0.032373
0.042005
0.052904
0.064660
0.076946
0.089539
0.102321
0.117542
0.431305
0.435065
0.445984
0.465142
0.494614
0.538050
0.601857
0.697112
0.831027
0.867987
0.000000
-0.535412
-0.535793
-0.532838
-0.543928
-0.567209
-0.591359
-0.601643
-0.582518
-0.545647
-0.496044
-0.438240
-0.377971
-0.321217
-0.275189
-0.242894
-0.223747
-0.212466
-0.203677
-0.192518
-0.176441
-0.157950
-0.139554
-0.123303
-0.110727
-0.102670
-0.098932
-0.098073
-0.097830
-0.096026
-0.091251
-0.082172
-0.070711
-0.058079
-0.045196
-0.032871
-0.021810
-0.012595
-0.005712
-0.001635
-0.000921
-0.004140
-0.011449
-0.022013
-0.033895
-0.044698
-0.052448
-0.055919
-0.054298
-0.048521
-0.039837
-0.029575
-0.018932
-0.008869
-0.000086
0.006962
0.012053
0.015212
0.016731
0.017129
0.017040
0.017037
0.017809
0.019529
0.021954
0.024749
0.027526
0.029910
0.031559
0.032179
0.031524
0.029417
0.025818
0.020891
0.015052
0.008944
0.003336
-0.001004
-0.003444
-0.003651
-0.001110
0.004124
0.011674
0.021026
0.031613
0.042904
0.054449
0.065910
0.077065
0.089353
0.450936
0.455139
0.467341
0.488670
0.521169
0.567944
0.632888
0.717555
0.814463
0.904948
0.825227
0.000000
-0.534710
-0.533627
-0.528432
-0.531941
-0.537671
-0.536915
-0.521357
-0.490857
-0.451921
-0.410544
-0.372418
-0.343625
-0.327439
-0.320842
-0.320069
-0.316258
-0.303916
-0.278746
-0.247478
-0.213093
-0.178659
-0.146721
-0.119184
-0.097343
-0.081798
-0.072196
-0.067109
-0.064442
-0.062237
-0.058528
-0.052203
-0.044610
-0.036336
-0.028121
-0.020720
-0.014830
-0.011102
-0.010219
-0.012928
-0.019825
-0.030793
-0.044498
-0.058551
-0.070345
-0.077910
-0.079736
-0.075540
-0.066543
-0.054336
-0.040530
-0.026527
-0.013403
-0.001899
0.007533
0.014682
0.019550
0.022366
0.023576
0.023771
0.023560
0.023455
0.023969
0.025010
0.026356
0.027686
0.028648
0.028898
0.028119
0.026037
0.022459
0.017336
0.010839
0.003400
-0.004311
-0.011483
-0.017290
-0.021032
-0.022262
-0.020583
-0.015958
-0.008841
0.000145
0.010308
0.020988
0.031614
0.041745
0.051070
0.060219
0.462893
0.466989
0.478805
0.499131
0.529204
0.570425
0.623868
0.689291
0.755965
0.780739
0.745506
0.632224
0.000000
-0.520353
-0.507079
-0.488844
-0.477200
-0.460175
-0.436070
-0.406858
-0.378864
-0.357448
-0.347501
-0.351840
-0.369121
-0.390478
-0.406233
-0.406152
-0.381912
-0.344263
-0.298860
-0.250241
-0.202258
-0.157876
-0.119140
-0.087324
-0.063098
-0.046524
-0.036839
-0.032370
-0.030911
-0.030328
-0.028870
-0.026073
-0.022402
-0.018508
-0.015137
-0.013053
-0.013047
-0.015985
-0.022753
-0.033866
-0.048842
-0.065843
-0.082084
-0.094774
-0.101937
-0.101722
-0.094561
-0.082069
-0.066204
-0.048872
-0.031668
-0.015768
-0.001928
0.009438
0.018178
0.024332
0.028123
0.029958
0.030392
0.030034
0.029433
0.028935
0.028811
0.028898
0.028924
0.028562
0.027472
0.025321
0.021820
0.016766
0.010109
0.002029
-0.007026
-0.016360
-0.025120
-0.032420
-0.037490
-0.039808
-0.039032
-0.035107
-0.028555
-0.020100
-0.010555
-0.000711
0.008746
0.017277
0.024502
0.030204
0.467365
0.470926
0.481113
0.498330
0.523138
0.555882
0.595591
0.637393
0.668792
0.663052
0.602518
0.518943
0.355204
0.000000
-0.472839
-0.438599
-0.427284
-0.392491
-0.350370
-0.317373
-0.298206
-0.295875
-0.312435
-0.348464
-0.397312
-0.442730
-0.469679
-0.466583
-0.432053
-0.383506
-0.326940
-0.267692
-0.210089
-0.157267
-0.111227
-0.073059
-0.043227
-0.021779
-0.008296
-0.001647
0.000067
-0.000932
-0.002838
-0.003919
-0.004271
-0.004367
-0.004913
-0.006714
-0.010681
-0.017833
-0.029101
-0.044801
-0.064003
-0.084374
-0.102772
-0.116217
-0.122691
-0.120125
-0.109820
-0.093831
-0.074484
-0.053948
-0.033975
-0.015798
-0.000157
0.012604
0.022419
0.029403
0.033812
0.036041
0.036615
0.036121
0.035091
0.033946
0.032951
0.032039
0.030990
0.029501
0.027230
0.023838
0.019027
0.012589
0.004481
-0.005106
-0.015706
-0.026601
-0.036900
-0.045664
-0.052059
-0.055505
-0.055697
-0.052615
-0.046831
-0.039156
-0.030512
-0.021811
-0.013851
-0.007257
-0.002466
-0.000610
0.465330
0.468145
0.476120
0.489276
0.507426
0.529750
0.553825
0.574024
0.579466
0.552342
0.474862
0.337083
0.191466
-0.224106
-0.480869
-0.429771
-0.405025
-0.343407
-0.279420
-0.241329
-0.225862
-0.238966
-0.278907
-0.340434
-0.410420
-0.469573
-0.500537
-0.487498
-0.448489
-0.393792
-0.331102
-0.266457
-0.204346
-0.147797
-0.098579
-0.057498
-0.024743
-0.000209
0.016367
0.025592
0.028735
0.027704
0.024487
0.020450
0.017001
0.013629
0.009638
0.004185
-0.003741
-0.015246
-0.031186
-0.051552
-0.074925
-0.098508
-0.118844
-0.132771
-0.138251
-0.133078
-0.119718
-0.100581
-0.078291
-0.055217
-0.033198
-0.013469
0.003289
0.016825
0.027174
0.034538
0.039223
0.041627
0.042245
0.041635
0.040329
0.038728
0.037119
0.035484
0.033633
0.031269
0.028049
0.023629
0.017701
0.010059
0.000671
-0.010258
-0.022247
-0.034556
-0.046265
-0.056397
-0.064071
-0.068662
-0.069894
-0.067831
-0.063074
-0.056497
-0.049114
-0.041939
-0.035869
-0.031607
-0.029632
-0.032090
0.458136
0.460094
0.465551
0.474231
0.485462
0.497791
0.508301
0.511651
0.499004
0.457173
0.368913
0.210476
-0.068030
-0.639678
-0.531968
-0.424227
-0.367806
-0.304128
-0.242762
-0.195518
-0.185194
-0.208831
-0.261123
-0.333171
-0.409109
-0.469769
-0.492199
-0.474217
-0.432992
-0.377102
-0.314082
-0.249826
-0.188546
-0.132944
-0.084480
-0.043690
-0.010522
0.015339
0.034188
0.046276
0.052137
0.052910
0.050150
0.045138
0.039960
0.034298
0.027546
0.018878
0.007241
-0.008456
-0.028865
-0.053561
-0.080637
-0.106909
-0.128675
-0.142625
-0.146585
-0.138861
-0.122904
-0.101352
-0.077027
-0.052399
-0.029313
-0.008940
0.008137
0.021776
0.032117
0.039443
0.044107
0.046508
0.047105
0.046412
0.044935
0.043078
0.041088
0.038998
0.036622
0.033663
0.029768
0.024580
0.017787
0.009187
-0.001242
-0.013281
-0.026430
-0.039935
-0.052856
-0.064197
-0.073054
-0.078777
-0.081119
-0.080258
-0.076807
-0.071682
-0.065963
-0.060744
-0.057002
-0.055500
-0.056749
-0.064022
0.447341
0.448453
0.451468
0.455942
0.460970
0.464897
0.464891
0.456394
0.432597
0.384019
0.298156
0.158598
-0.055289
-0.325931
-0.372267
-0.347630
-0.310408
-0.264252
-0.217814
-0.185835
-0.181766
-0.208171
-0.260685
-0.328386
-0.395153
-0.442415
-0.450667
-0.431438
-0.392096
-0.340152
-0.282175
-0.223303
-0.167180
-0.116115
-0.071325
-0.033220
-0.001669
0.023743
0.043465
0.057779
0.066834
0.070998
0.071007
0.067500
0.062359
0.055576
0.046897
0.035651
0.020839
0.001504
-0.022690
-0.050872
-0.080709
-0.108735
-0.131120
-0.144641
-0.145966
-0.136363
-0.118653
-0.095752
-0.070590
-0.045623
-0.022609
-0.002596
0.013963
0.027042
0.036868
0.043791
0.048192
0.050464
0.051021
0.050313
0.048793
0.046844
0.044702
0.042405
0.039770
0.036491
0.032200
0.026526
0.019150
0.009871
-0.001323
-0.014195
-0.028235
-0.042675
-0.056569
-0.068918
-0.078820
-0.085626
-0.089123
-0.089618
-0.087728
-0.084395
-0.080740
-0.077914
-0.076943
-0.078630
-0.083500
-0.096074
0.434485
0.434848
0.435733
0.436637
0.436616
0.434096
0.426626
0.410622
0.381182
0.332114
0.256316
0.147149
0.003941
-0.150802
-0.227711
-0.249470
-0.243612
-0.223976
-0.201851
-0.188753
-0.193611
-0.219219
-0.262535
-0.314838
-0.362600
-0.388117
-0.390338
-0.372106
-0.338051
-0.293678
-0.244099
-0.193463
-0.144799
-0.100078
-0.060389
-0.026144
0.002712
0.026504
0.045669
0.060598
0.071576
0.078781
0.082176
0.083378
0.080353
0.073971
0.064616
0.051859
0.034873
0.012967
-0.013803
-0.044134
-0.075362
-0.103836
-0.125683
-0.137752
-0.136699
-0.125706
-0.107211
-0.084196
-0.059525
-0.035508
-0.013721
0.004963
0.020235
0.032169
0.041059
0.047286
0.051244
0.053305
0.053830
0.053196
0.051783
0.049922
0.047849
0.045572
0.042916
0.039568
0.035145
0.029258
0.021578
0.011903
0.000229
-0.013196
-0.027847
-0.042951
-0.057565
-0.070703
-0.081483
-0.089284
-0.093938
-0.095878
-0.095733
-0.094465
-0.093224
-0.093183
-0.095388
-0.100644
-0.109474
-0.127750
0.420930
0.420682
0.419845
0.417939
0.414101
0.406980
0.394619
0.374377
0.342951
0.296642
0.232031
0.147511
0.046749
-0.056043
-0.127862
-0.167090
-0.183160
-0.185615
-0.183394
-0.184729
-0.195685
-0.218445
-0.250824
-0.286375
-0.315380
-0.329693
-0.328687
-0.312851
-0.284963
-0.248754
-0.207960
-0.165795
-0.124724
-0.086439
-0.051945
-0.021693
0.004270
0.026157
0.044317
0.059130
0.070912
0.079827
0.086461
0.090489
0.090258
0.085928
0.077533
0.064760
0.047059
0.024111
-0.003608
-0.034420
-0.065419
-0.092879
-0.112980
-0.122683
-0.119779
-0.108040
-0.089821
-0.067946
-0.045038
-0.023135
-0.003565
0.012997
0.026379
0.036734
0.044389
0.049729
0.053133
0.054938
0.055454
0.054980
0.053815
0.052234
0.050432
0.048377
0.045906
0.042707
0.038383
0.032527
0.024796
0.014984
0.003092
-0.010624
-0.025629
-0.041147
-0.056243
-0.069953
-0.081428
-0.090089
-0.095842
-0.099222
-0.100895
-0.101858
-0.103281
-0.106333
-0.112031
-0.121141
-0.134154
-0.158363
0.407794
0.407075
0.404929
0.400940
0.394384
0.384181
0.368856
0.346560
0.315184
0.272673
0.217632
0.150375
0.074570
-0.001267
-0.063199
-0.106752
-0.134264
-0.150660
-0.161590
-0.172398
-0.187003
-0.206885
-0.230649
-0.254247
-0.272044
-0.280242
-0.277448
-0.263804
-0.240986
-0.211487
-0.177991
-0.142947
-0.108342
-0.075613
-0.045676
-0.018998
0.004304
0.024354
0.041423
0.055840
0.067912
0.077851
0.086110
0.091478
0.093303
0.091159
0.084583
0.073046
0.056104
0.033742
0.006789
-0.022794
-0.051971
-0.077057
-0.094488
-0.100972
-0.097044
-0.085512
-0.068650
-0.049003
-0.028846
-0.009888
0.006808
0.020753
0.031888
0.040420
0.046685
0.051051
0.053861
0.055408
0.055945
0.055698
0.054882
0.053775
0.052387
0.050714
0.048596
0.045721
0.041682
0.036055
0.028482
0.018749
0.006855
-0.006933
-0.022077
-0.037798
-0.053170
-0.067251
-0.079230
-0.088556
-0.095273
-0.099978
-0.103414
-0.106640
-0.110851
-0.117183
-0.126567
-0.139666
-0.156902
-0.186994
0.395937
0.394871
0.391773
0.386313
0.377919
0.365767
0.348793
0.325748
0.295342
0.256510
0.208853
0.153251
0.092578
0.032020
-0.021615
-0.064705
-0.097189
-0.121215
-0.139925
-0.156513
-0.173377
-0.191458
-0.209962
-0.226573
-0.238317
-0.242828
-0.239000
-0.226920
-0.207688
-0.183038
-0.154943
-0.125295
-0.095698
-0.067370
-0.041129
-0.017421
0.003603
0.022016
0.038029
0.051922
0.063978
0.074439
0.083126
0.089362
0.092566
0.092121
0.087351
0.077584
0.062375
0.041851
0.017044
-0.009941
-0.036050
-0.057745
-0.071769
-0.075691
-0.071674
-0.061263
-0.046568
-0.029797
-0.012863
0.002829
0.016441
0.027632
0.036430
0.043083
0.047932
0.051326
0.053564
0.054890
0.055494
0.055533
0.055152
0.054584
0.053705
0.052523
0.050874
0.048443
0.044817
0.039558
0.032293
0.022796
0.011063
-0.002637
-0.017759
-0.033520
-0.048998
-0.063271
-0.075575
-0.085270
-0.092756
-0.098561
-0.103571
-0.108949
-0.115929
-0.125585
-0.138691
-0.155724
-0.176976
-0.212466
0.385997
0.384674
0.380900
0.374437
0.364853
0.351539
0.333739
0.310630
0.281446
0.245687
0.203408
0.155559
0.104281
0.052882
0.005206
-0.036141
-0.070388
-0.098248
-0.121288
-0.141283
-0.159621
-0.176860
-0.192552
-0.205392
-0.213763
-0.216059
-0.211624
-0.200572
-0.183718
-0.162364
-0.138036
-0.112245
-0.086321
-0.061304
-0.037915
-0.016565
0.002597
0.019619
0.034682
0.048025
0.059883
0.070460
0.079368
0.086220
0.090450
0.091369
0.088221
0.080301
0.067194
0.049102
0.027137
0.003417
-0.019130
-0.037283
-0.048270
-0.051265
-0.047694
-0.038841
-0.026522
-0.012620
0.001246
0.013902
0.024667
0.033304
0.039910
0.044779
0.048283
0.050767
0.052502
0.053677
0.054411
0.054784
0.054940
0.054838
0.054485
0.053833
0.052700
0.050766
0.047612
0.042791
0.035915
0.026745
0.015270
0.001758
-0.013238
-0.028927
-0.044379
-0.058666
-0.071040
-0.080923
-0.088855
-0.095442
-0.101725
-0.109008
-0.118578
-0.131430
-0.148114
-0.168811
-0.193588
-0.233370
0.378445
0.376902
0.372633
0.365499
0.355176
0.341206
0.323051
0.300162
0.272092
0.238648
0.200074
0.157249
0.111793
0.065975
0.022283
-0.017355
-0.052000
-0.081666
-0.107018
-0.128964
-0.148254
-0.165182
-0.179458
-0.190307
-0.196748
-0.197763
-0.192984
-0.182585
-0.167250
-0.148043
-0.126223
-0.103062
-0.079699
-0.057047
-0.035747
-0.016171
0.001546
0.017451
0.031716
0.044565
0.056215
0.066747
0.075858
0.083230
0.088317
0.090401
0.088688
0.082465
0.071351
0.055603
0.036355
0.015658
-0.003790
-0.019207
-0.028462
-0.031311
-0.028412
-0.020985
-0.010643
0.000962
0.012407
0.022665
0.031152
0.037698
0.042455
0.045775
0.048079
0.049750
0.051059
0.052159
0.053098
0.053851
0.054415
0.054779
0.054929
0.054781
0.054138
0.052676
0.049978
0.045589
0.039110
0.030287
0.019099
0.005812
-0.009013
-0.024568
-0.039899
-0.054051
-0.066248
-0.076118
-0.084208
-0.091251
-0.098450
-0.107255
-0.119029
-0.134700
-0.154573
-0.178450
-0.206032
-0.248268
0.373687
0.371827
0.367142
0.359561
0.348803
0.334494
0.316221
0.293600
0.266359
0.234457
0.198211
0.158413
0.116365
0.073786
0.032519
-0.005889
-0.040481
-0.070945
-0.097466
-0.120465
-0.140323
-0.157165
-0.170760
-0.180572
-0.185948
-0.186265
-0.181317
-0.171325
-0.156913
-0.139020
-0.118753
-0.097240
-0.075503
-0.054370
-0.034432
-0.016033
0.000701
0.015818
0.029482
0.041919
0.053371
0.063861
0.073173
0.081007
0.086813
0.089843
0.089266
0.084349
0.074723
0.060674
0.043347
0.024724
0.007296
-0.006486
-0.014998
-0.017826
-0.015453
-0.009016
0.000011
0.010113
0.019987
0.028688
0.035684
0.040835
0.044317
0.046513
0.047889
0.048881
0.049805
0.050847
0.051961
0.052988
0.053921
0.054706
0.055287
0.055557
0.055312
0.054234
0.051908
0.047877
0.041731
0.033203
0.022259
0.009165
-0.005508
-0.020926
-0.036101
-0.050041
-0.061917
-0.071711
-0.079842
-0.087140
-0.094912
-0.104712
-0.117988
-0.135673
-0.157918
-0.184210
-0.213859
-0.256379
0.372321
0.369543
0.364458
0.356614
0.345651
0.331210
0.312931
0.290502
0.263727
0.232625
0.197530
0.159177
0.118717
0.077628
0.037491
-0.000309
-0.034823
-0.065605
-0.092632
-0.116108
-0.136245
-0.153086
-0.166427
-0.175866
-0.180834
-0.180882
-0.175903
-0.166143
-0.152201
-0.134953
-0.115431
-0.094693
-0.073704
-0.053253
-0.033907
-0.016003
0.000332
0.015138
0.028563
0.040801
0.052001
0.062348
0.071829
0.080045
0.086391
0.090069
0.090193
0.085991
0.077077
0.063754
0.047204
0.029416
0.012798
-0.000474
-0.008857
-0.011737
-0.009665
-0.003731
0.004665
0.014089
0.023295
0.031372
0.037805
0.042452
0.045482
0.047269
0.048281
0.048959
0.049626
0.050418
0.051402
0.052604
0.053804
0.054885
0.055758
0.056307
0.056326
0.055501
0.053416
0.049611
0.043663
0.035290
0.024449
0.011404
-0.003255
-0.018656
-0.033776
-0.047646
-0.059616
-0.069491
-0.077728
-0.085222
-0.093288
-0.103479
-0.117261
-0.135606
-0.158706
-0.186042
-0.216913
-0.259170
