# vtk DataFile Version 3.0
Scalar Field
ASCII
DATASET RECTILINEAR_GRID
DIMENSIONS 100 26 1
X_COORDINATES 100 double
0.050000 0.150000 0.250000 0.350000 0.450000 0.550000 0.650000 0.750000 0.850000 0.950000 1.050000 1.150000 1.250000 1.350000 1.450000 1.550000 1.650000 1.750000 1.850000 1.950000 2.050000 2.150000 2.250000 2.350000 2.450000 2.550000 2.650000 2.750000 2.850000 2.950000 3.050000 3.150000 3.250000 3.350000 3.450000 3.550000 3.650000 3.750000 3.850000 3.950000 4.050000 4.150000 4.250000 4.350000 4.450000 4.550000 4.650000 4.750000 4.850000 4.950000 5.050000 5.150000 5.250000 5.350000 5.450000 5.550000 5.650000 5.750000 5.850000 5.950000 6.050000 6.150000 6.250000 6.350000 6.450000 6.550000 6.650000 6.750000 6.850000 6.950000 7.050000 7.150000 7.250000 7.350000 7.450000 7.550000 7.650000 7.750000 7.850000 7.950000 8.050000 8.150000 8.250000 8.350000 8.450000 8.550000 8.650000 8.750000 8.850000 8.950000 9.050000 9.150000 9.250000 9.350000 9.450000 9.550000 9.650000 9.750000 9.850000 9.950000 
Y_COORDINATES 26 double
0.050000 0.150000 0.250000 0.350000 0.450000 0.550000 0.650000 0.750000 0.850000 0.950000 1.050000 1.150000 1.250000 1.350000 1.450000 1.550000 1.650000 1.750000 1.850000 1.950000 2.050000 2.150000 2.250000 2.350000 2.450000 2.550000 
Z_COORDINATES 1 double
0.0
POINT_DATA 2600
SCALARS Skalarfeld double 1
LOOKUP_TABLE default
0.297254
0.282121
0.267298
0.249732
0.228286
0.202434
0.172041
0.137337
0.098984
0.058101
0.016194
-0.025077
-0.064166
-0.099827
-0.131187
-0.157780
-0.178598
-0.193554
-0.202692
-0.206261
-0.204733
-0.198786
-0.189249
-0.177018
-0.162966
-0.147849
-0.132245
-0.116520
-0.100841
-0.085224
-0.069607
-0.053948
-0.038312
-0.022974
-0.007242
0.008025
0.021490
0.032254
0.039864
0.044115
0.045677
0.045088
0.042324
0.037387
0.030221
0.020782
0.009179
-0.004110
-0.017940
-0.030294
-0.038710
-0.041736
-0.039844
-0.034446
-0.027797
-0.020298
-0.012594
-0.005229
0.001406
0.007081
0.011701
0.015282
0.017932
0.019727
0.020965
0.021565
0.021494
0.020799
0.019547
0.017873
0.015997
0.014164
0.012500
0.010877
0.008894
0.006068
0.002093
-0.002984
-0.008766
-0.014667
-0.020147
-0.024890
-0.028837
-0.032107
-0.034890
-0.037358
-0.039687
-0.042042
-0.044579
-0.047459
-0.050847
-0.054935
-0.059927
-0.065971
-0.073158
-0.081495
-0.090890
-0.101154
-0.112014
-0.123630
0.288183
0.281864
0.270043
0.253698
0.232646
0.206626
0.175531
0.139598
0.099566
0.056752
0.012972
-0.029849
-0.070051
-0.106400
-0.138041
-0.164268
-0.185179
-0.200240
-0.209376
-0.212799
-0.210957
-0.204522
-0.194343
-0.181355
-0.166474
-0.150501
-0.134051
-0.117525
-0.101112
-0.084842
-0.068659
-0.052507
-0.036367
-0.020141
-0.004194
0.010501
0.023200
0.033244
0.040331
0.044734
0.046139
0.045136
0.041942
0.036636
0.029175
0.019483
0.007610
-0.006019
-0.020201
-0.032670
-0.040650
-0.042524
-0.039508
-0.034620
-0.028466
-0.020861
-0.013080
-0.005649
0.001029
0.006739
0.011393
0.015014
0.017730
0.019794
0.021130
0.021682
0.021569
0.020889
0.019678
0.018062
0.016273
0.014578
0.013114
0.011721
0.009915
0.007116
0.002969
-0.002457
-0.008659
-0.014914
-0.020587
-0.025351
-0.029210
-0.032360
-0.035042
-0.037395
-0.039605
-0.041821
-0.044195
-0.046902
-0.050106
-0.054023
-0.058918
-0.064918
-0.072123
-0.080544
-0.090087
-0.100542
-0.111563
-0.124172
0.290823
0.286873
0.276979
0.261717
0.241002
0.214517
0.182020
0.143646
0.100215
0.053422
0.005820
-0.040059
-0.082351
-0.119949
-0.152290
-0.179077
-0.200209
-0.215601
-0.224828
-0.228017
-0.225528
-0.217997
-0.206292
-0.191410
-0.174359
-0.156043
-0.137186
-0.118299
-0.099679
-0.081461
-0.063671
-0.046300
-0.029339
-0.012801
0.002460
0.015965
0.027125
0.035435
0.040677
0.043043
0.042981
0.040108
0.035552
0.029506
0.021937
0.012744
0.001959
-0.009966
-0.021872
-0.031881
-0.038120
-0.039879
-0.037923
-0.033304
-0.026549
-0.019459
-0.012355
-0.005334
0.001000
0.006438
0.010857
0.014258
0.016731
0.018431
0.019476
0.020051
0.020170
0.019859
0.019211
0.018305
0.017221
0.016060
0.014820
0.013338
0.011191
0.007938
0.003378
-0.002351
-0.008708
-0.014977
-0.020571
-0.025240
-0.029056
-0.032214
-0.034863
-0.037178
-0.039317
-0.041311
-0.043396
-0.045827
-0.048796
-0.052548
-0.057274
-0.063239
-0.070557
-0.079128
-0.088857
-0.099516
-0.110734
-0.123264
0.300818
0.297654
0.288847
0.274386
0.253851
0.226566
0.191879
0.149593
0.100542
0.046998
-0.006831
-0.057270
-0.102288
-0.141229
-0.174151
-0.201280
-0.222694
-0.238377
-0.247674
-0.250486
-0.246998
-0.237779
-0.223742
-0.206002
-0.185712
-0.163936
-0.141558
-0.119249
-0.097472
-0.076511
-0.056526
-0.037596
-0.019773
-0.003152
0.011636
0.024029
0.033437
0.039381
0.041736
0.040833
0.037379
0.032044
0.025280
0.018090
0.010465
0.002288
-0.006457
-0.015456
-0.023908
-0.030636
-0.034574
-0.035319
-0.033187
-0.028823
-0.022930
-0.016318
-0.009416
-0.003073
0.002538
0.007377
0.011218
0.014048
0.015919
0.016985
0.017471
0.017637
0.017665
0.017667
0.017670
0.017602
0.017363
0.016832
0.015882
0.014282
0.011776
0.008154
0.003477
-0.002150
-0.008226
-0.014196
-0.019621
-0.024307
-0.028261
-0.031564
-0.034279
-0.036488
-0.038288
-0.040028
-0.041942
-0.044174
-0.046895
-0.050495
-0.055215
-0.061227
-0.068605
-0.077330
-0.087254
-0.098148
-0.109666
-0.123111
0.316686
0.313940
0.305977
0.292338
0.272098
0.243916
0.206302
0.158239
0.100283
0.035403
-0.028101
-0.084557
-0.132289
-0.171900
-0.204698
-0.231753
-0.253417
-0.269342
-0.278786
-0.281098
-0.276145
-0.264440
-0.247042
-0.225306
-0.200640
-0.174335
-0.147480
-0.120927
-0.095310
-0.071064
-0.048470
-0.027682
-0.008759
0.008294
0.023008
0.034555
0.042155
0.045228
0.043751
0.038357
0.030236
0.020923
0.011650
0.003185
-0.004320
-0.011087
-0.017315
-0.022973
-0.027703
-0.030926
-0.032121
-0.031096
-0.028042
-0.023393
-0.017689
-0.011503
-0.005320
0.000406
0.005490
0.009606
0.012697
0.014757
0.015793
0.015988
0.015672
0.015224
0.014919
0.014914
0.015222
0.015691
0.016068
0.016071
0.015443
0.013959
0.011446
0.007772
0.003043
-0.002585
-0.008414
-0.014058
-0.019179
-0.023609
-0.027329
-0.030389
-0.032869
-0.034873
-0.036536
-0.038052
-0.039593
-0.041432
-0.043991
-0.047487
-0.052189
-0.058269
-0.065777
-0.074716
-0.084935
-0.096263
-0.108531
-0.124709
0.337641
0.335320
0.328412
0.316086
0.296803
0.268213
0.227299
0.171165
0.099121
0.014279
-0.063699
-0.126558
-0.175155
-0.213165
-0.244137
-0.270417
-0.292606
-0.309436
-0.319567
-0.321584
-0.314739
-0.299553
-0.277459
-0.250280
-0.219841
-0.187758
-0.155359
-0.123685
-0.093520
-0.065429
-0.039795
-0.016839
0.003382
0.021012
0.036041
0.047098
0.053055
0.053109
0.047394
0.036878
0.023182
0.008431
-0.005025
-0.014989
-0.022181
-0.027198
-0.030598
-0.032762
-0.033776
-0.033510
-0.031802
-0.028623
-0.024142
-0.018686
-0.012665
-0.006516
-0.000627
0.004670
0.009141
0.012562
0.014855
0.015910
0.015839
0.014892
0.013481
0.012173
0.011255
0.010893
0.011178
0.011943
0.012843
0.013463
0.013411
0.012359
0.010090
0.006536
0.001700
-0.003817
-0.009594
-0.015084
-0.019931
-0.023976
-0.027209
-0.029711
-0.031607
-0.033047
-0.034195
-0.035239
-0.036389
-0.037916
-0.040156
-0.043422
-0.048001
-0.054099
-0.061781
-0.070991
-0.081605
-0.093533
-0.106793
-0.125525
0.362891
0.361171
0.355890
0.345928
0.329107
0.301746
0.258273
0.191684
0.096774
-0.025951
-0.123377
-0.188527
-0.231893
-0.263233
-0.289186
-0.313672
-0.337519
-0.357815
-0.370448
-0.373210
-0.364292
-0.344514
-0.316147
-0.281850
-0.244074
-0.204844
-0.165751
-0.128010
-0.092535
-0.059999
-0.030887
-0.005523
0.015925
0.033514
0.048563
0.059431
0.064224
0.061745
0.052515
0.037893
0.019679
0.000064
-0.018412
-0.033260
-0.040721
-0.044359
-0.045192
-0.044144
-0.041761
-0.038282
-0.033798
-0.028407
-0.022288
-0.015714
-0.009016
-0.002538
0.003404
0.008547
0.012680
0.015608
0.017162
0.017213
0.015814
0.013277
0.010165
0.007127
0.005045
0.004081
0.004242
0.005321
0.006856
0.008303
0.009140
0.008933
0.007377
0.004340
-0.000099
-0.005531
-0.011436
-0.016933
-0.021681
-0.025431
-0.028182
-0.030039
-0.031181
-0.031824
-0.032194
-0.032523
-0.033055
-0.034069
-0.035887
-0.038844
-0.043242
-0.049290
-0.057054
-0.066480
-0.077462
-0.089936
-0.103985
-0.123982
0.391310
0.390460
0.387645
0.381645
0.369873
0.347332
0.304847
0.227130
0.093229
-0.107306
-0.221288
-0.271639
-0.296976
-0.313811
-0.330220
-0.351304
-0.378537
-0.407982
-0.427972
-0.434153
-0.423615
-0.398375
-0.362390
-0.319624
-0.273323
-0.225951
-0.179344
-0.134867
-0.093548
-0.056167
-0.023327
0.004480
0.026823
0.043459
0.054598
0.064723
0.068836
0.064382
0.053098
0.037072
0.017897
-0.002909
-0.023410
-0.041281
-0.054312
-0.058127
-0.057840
-0.054823
-0.050092
-0.044221
-0.037533
-0.030255
-0.022619
-0.014894
-0.007381
-0.000383
0.005822
0.010998
0.014922
0.017352
0.018020
0.016734
0.013567
0.008989
0.003839
-0.000918
-0.004494
-0.006141
-0.005890
-0.004225
-0.001788
0.000746
0.002755
0.003721
0.003266
0.001191
-0.002473
-0.007427
-0.013147
-0.018942
-0.023756
-0.027380
-0.029841
-0.031203
-0.031672
-0.031526
-0.031065
-0.030588
-0.030392
-0.030783
-0.032089
-0.034643
-0.038748
-0.044611
-0.052310
-0.061796
-0.072946
-0.085663
-0.099979
-0.119998
0.421282
0.421576
0.422121
0.421948
0.418742
0.407209
0.375144
0.294371
0.094255
-0.284061
-0.369070
-0.361083
-0.353812
-0.350885
-0.354502
-0.369935
-0.399487
-0.440576
-0.480176
-0.494422
-0.484030
-0.453824
-0.410496
-0.359649
-0.305301
-0.250266
-0.196577
-0.145757
-0.098986
-0.057212
-0.021240
0.008184
0.030293
0.044430
0.051145
0.052432
0.052302
0.047147
0.037955
0.025588
0.010655
-0.006221
-0.023956
-0.040829
-0.054732
-0.063848
-0.064635
-0.061608
-0.056275
-0.049444
-0.041642
-0.033251
-0.024604
-0.016030
-0.007858
-0.000408
0.006029
0.011185
0.014775
0.016458
0.015872
0.012804
0.007448
0.000558
-0.006662
-0.012934
-0.017345
-0.019119
-0.018338
-0.015729
-0.012104
-0.008257
-0.004884
-0.002558
-0.001698
-0.002550
-0.005147
-0.009272
-0.014462
-0.020045
-0.025252
-0.029003
-0.031435
-0.032576
-0.032626
-0.031899
-0.030757
-0.029568
-0.028688
-0.028461
-0.029226
-0.031317
-0.035029
-0.040568
-0.048014
-0.057302
-0.068271
-0.080745
-0.094654
-0.113647
0.450681
0.452280
0.456757
0.463816
0.472459
0.479544
0.475310
0.427606
0.193210
-0.615581
-0.540347
-0.412777
-0.381452
-0.366936
-0.361600
-0.373232
-0.402682
-0.446837
-0.499031
-0.533367
-0.526827
-0.495000
-0.447952
-0.392795
-0.333960
-0.274430
-0.216430
-0.161736
-0.111850
-0.068156
-0.032077
-0.005028
0.012232
0.020408
0.021720
0.019025
0.014834
0.011590
0.007742
0.002575
-0.004430
-0.013582
-0.024701
-0.036876
-0.048524
-0.057806
-0.063230
-0.062169
-0.058046
-0.051887
-0.044342
-0.035928
-0.027101
-0.018293
-0.009917
-0.002365
0.004005
0.008844
0.011765
0.012323
0.010096
0.004940
-0.002718
-0.011756
-0.020615
-0.027811
-0.032405
-0.033612
-0.031823
-0.027921
-0.022860
-0.017531
-0.012692
-0.008938
-0.006701
-0.006247
-0.007648
-0.010756
-0.015182
-0.020315
-0.025406
-0.029700
-0.032252
-0.033429
-0.033361
-0.032349
-0.030788
-0.029101
-0.027691
-0.026941
-0.027208
-0.028823
-0.032075
-0.037161
-0.044143
-0.052929
-0.063295
-0.074975
-0.087786
-0.104810
0.477091
0.479918
0.488148
0.502346
0.523447
0.552592
0.590351
0.632906
0.714021
0.049220
-0.467109
-0.393871
-0.386101
-0.378205
-0.375899
-0.385493
-0.410288
-0.447335
-0.492526
-0.530740
-0.537545
-0.507386
-0.461642
-0.408066
-0.350598
-0.292053
-0.234833
-0.181100
-0.132916
-0.092342
-0.061342
-0.041179
-0.031450
-0.029603
-0.031818
-0.034774
-0.035521
-0.033002
-0.029243
-0.025704
-0.023537
-0.023645
-0.026527
-0.032039
-0.039270
-0.046716
-0.052714
-0.055931
-0.054273
-0.050098
-0.044060
-0.036739
-0.028681
-0.020427
-0.012499
-0.005390
0.000436
0.004521
0.006367
0.005436
0.001307
-0.006017
-0.015803
-0.026574
-0.036515
-0.044054
-0.048274
-0.048380
-0.045175
-0.039679
-0.032973
-0.026043
-0.019691
-0.014523
-0.010957
-0.009246
-0.009474
-0.011533
-0.015102
-0.019641
-0.024457
-0.028832
-0.031817
-0.033207
-0.033267
-0.032246
-0.030540
-0.028595
-0.026852
-0.025719
-0.025569
-0.026732
-0.029485
-0.034006
-0.040330
-0.048315
-0.057669
-0.068032
-0.079109
-0.093265
0.498241
0.501941
0.512825
0.532020
0.561679
0.605529
0.670007
0.765977
0.899806
0.922979
0.000000
-0.391519
-0.389167
-0.390007
-0.394034
-0.405886
-0.424449
-0.449176
-0.477780
-0.500643
-0.506682
-0.485062
-0.443885
-0.396846
-0.346211
-0.294316
-0.243664
-0.196768
-0.156212
-0.124519
-0.103600
-0.093598
-0.092007
-0.094400
-0.096575
-0.094861
-0.087616
-0.076872
-0.064489
-0.052149
-0.041242
-0.032886
-0.027885
-0.026579
-0.028658
-0.033096
-0.038378
-0.042935
-0.045124
-0.043585
-0.039874
-0.034509
-0.028050
-0.021104
-0.014292
-0.008214
-0.003444
-0.000557
-0.000165
-0.002867
-0.009036
-0.018467
-0.030116
-0.042223
-0.052823
-0.060322
-0.063670
-0.062314
-0.057400
-0.050094
-0.041609
-0.033019
-0.025170
-0.018662
-0.013884
-0.011052
-0.010231
-0.011328
-0.014066
-0.017967
-0.022385
-0.026600
-0.029925
-0.031640
-0.031978
-0.031138
-0.029493
-0.027491
-0.025587
-0.024205
-0.023724
-0.024471
-0.026705
-0.030578
-0.036081
-0.043016
-0.051016
-0.059621
-0.068418
-0.078825
0.512518
0.516556
0.528420
0.549242
0.581047
0.626840
0.690015
0.771803
0.865350
0.946153
0.855898
0.000000
-0.395559
-0.401951
-0.410527
-0.425638
-0.441105
-0.453690
-0.461012
-0.460235
-0.446835
-0.426214
-0.392080
-0.353867
-0.313064
-0.271698
-0.232424
-0.198024
-0.171402
-0.154911
-0.149146
-0.151721
-0.157673
-0.161647
-0.159874
-0.149270
-0.133013
-0.113333
-0.092354
-0.071909
-0.053460
-0.038118
-0.026682
-0.019625
-0.016972
-0.018138
-0.021906
-0.026671
-0.030829
-0.032669
-0.031581
-0.028652
-0.024329
-0.019238
-0.014061
-0.009487
-0.006192
-0.004865
-0.006222
-0.010897
-0.019176
-0.030629
-0.043937
-0.057127
-0.068141
-0.075425
-0.077343
-0.074366
-0.067602
-0.058413
-0.048146
-0.037954
-0.028711
-0.021006
-0.015187
-0.011419
-0.009731
-0.010020
-0.012032
-0.015337
-0.019339
-0.023359
-0.026758
-0.028774
-0.029412
-0.028826
-0.027348
-0.025407
-0.023455
-0.021915
-0.021166
-0.021527
-0.023232
-0.026398
-0.030966
-0.036673
-0.043066
-0.049577
-0.055657
-0.061479
0.519292
0.523129
0.534332
0.553657
0.582302
0.621698
0.673145
0.735086
0.794467
0.810305
0.765643
0.642881
0.000000
-0.414321
-0.426691
-0.453313
-0.471170
-0.470654
-0.450707
-0.418708
-0.381782
-0.345602
-0.310704
-0.278832
-0.248540
-0.219353
-0.195151
-0.178830
-0.172767
-0.177620
-0.190957
-0.207122
-0.219413
-0.222977
-0.213026
-0.192770
-0.167373
-0.139234
-0.110594
-0.083329
-0.058864
-0.038201
-0.021998
-0.010636
-0.004216
-0.002427
-0.004395
-0.008703
-0.013667
-0.017729
-0.019504
-0.019141
-0.017146
-0.014153
-0.010878
-0.008074
-0.006506
-0.006974
-0.010277
-0.017059
-0.027483
-0.040895
-0.055735
-0.069854
-0.081091
-0.087826
-0.088250
-0.083535
-0.074955
-0.064015
-0.052160
-0.040592
-0.030191
-0.021521
-0.014885
-0.010395
-0.008036
-0.007687
-0.009105
-0.011893
-0.015499
-0.019276
-0.022591
-0.024840
-0.025699
-0.025340
-0.024037
-0.022188
-0.020226
-0.018566
-0.017578
-0.017564
-0.018733
-0.021159
-0.024728
-0.029104
-0.033739
-0.037942
-0.041001
-0.041516
0.518929
0.522192
0.531649
0.547676
0.570741
0.600970
0.636948
0.673732
0.697935
0.683390
0.612952
0.520118
0.343027
0.000000
-0.465278
-0.503865
-0.521451
-0.501379
-0.448589
-0.382139
-0.316510
-0.260031
-0.215570
-0.184640
-0.161805
-0.144230
-0.137763
-0.143964
-0.162988
-0.192178
-0.225296
-0.253837
-0.270320
-0.269500
-0.249582
-0.221340
-0.188369
-0.153526
-0.119137
-0.087003
-0.058404
-0.034167
-0.014763
-0.000417
0.008826
0.013142
0.013096
0.009776
0.004696
-0.000596
-0.004611
-0.006414
-0.006575
-0.005613
-0.004242
-0.003253
-0.003494
-0.005858
-0.011206
-0.020150
-0.032704
-0.047990
-0.064239
-0.079153
-0.090470
-0.096408
-0.095201
-0.088884
-0.078788
-0.066491
-0.053479
-0.040958
-0.029785
-0.020483
-0.013304
-0.008317
-0.005470
-0.004628
-0.005558
-0.007893
-0.011120
-0.014622
-0.017778
-0.020076
-0.021069
-0.020853
-0.019666
-0.017871
-0.015879
-0.014089
-0.012857
-0.012465
-0.013094
-0.014775
-0.017333
-0.020356
-0.023195
-0.025017
-0.024922
-0.019618
0.512488
0.514958
0.522022
0.533656
0.549593
0.568838
0.588731
0.603424
0.601651
0.565473
0.476745
0.324981
0.165937
-0.286641
-0.607812
-0.554872
-0.554948
-0.513554
-0.437183
-0.346182
-0.258662
-0.185557
-0.130242
-0.091172
-0.071447
-0.065493
-0.077049
-0.106135
-0.149373
-0.200258
-0.249365
-0.286355
-0.303274
-0.292273
-0.266763
-0.233001
-0.195214
-0.156479
-0.119064
-0.084575
-0.054065
-0.028143
-0.007083
0.009055
0.020317
0.026828
0.028895
0.027217
0.022969
0.017620
0.012541
0.008882
0.006947
0.006174
0.005846
0.005140
0.003145
-0.001102
-0.008484
-0.019531
-0.034082
-0.051048
-0.068484
-0.083989
-0.095332
-0.099544
-0.097203
-0.089796
-0.078791
-0.065799
-0.052288
-0.039416
-0.027984
-0.018457
-0.011042
-0.005774
-0.002585
-0.001341
-0.001828
-0.003718
-0.006539
-0.009712
-0.012635
-0.014812
-0.015812
-0.015625
-0.014455
-0.012639
-0.010561
-0.008604
-0.007106
-0.006329
-0.006426
-0.007384
-0.008976
-0.010714
-0.011845
-0.011387
-0.008224
0.003083
0.501432
0.503006
0.507428
0.514382
0.523130
0.532096
0.538202
0.535905
0.516073
0.465112
0.364913
0.189981
-0.113968
-0.739219
-0.660752
-0.557469
-0.521672
-0.469760
-0.391839
-0.300971
-0.211927
-0.135144
-0.074826
-0.030401
-0.007690
-0.007190
-0.032365
-0.078925
-0.139085
-0.203251
-0.260333
-0.299601
-0.308066
-0.292228
-0.263686
-0.227870
-0.188892
-0.149705
-0.112355
-0.078190
-0.048024
-0.022268
-0.001045
0.015713
0.028159
0.036441
0.040718
0.041326
0.038978
0.034763
0.029852
0.025442
0.022459
0.020443
0.018753
0.016583
0.012991
0.006989
-0.002268
-0.015186
-0.031414
-0.049678
-0.067896
-0.083549
-0.094168
-0.097058
-0.094084
-0.086317
-0.075241
-0.062415
-0.049214
-0.036695
-0.025572
-0.016247
-0.008889
-0.003520
-0.000078
0.001547
0.001529
0.000150
-0.002171
-0.004899
-0.007464
-0.009381
-0.010239
-0.009950
-0.008692
-0.006770
-0.004546
-0.002381
-0.000597
0.000562
0.000970
0.000671
-0.000061
-0.000678
-0.000332
0.002100
0.007964
0.025006
0.487415
0.488122
0.490023
0.492650
0.495055
0.495505
0.491051
0.476975
0.446218
0.388886
0.291654
0.136505
-0.100457
-0.405566
-0.475740
-0.464091
-0.434550
-0.390691
-0.329163
-0.256725
-0.183036
-0.116102
-0.060563
-0.019156
0.012748
0.011742
-0.019606
-0.072410
-0.136584
-0.201421
-0.255550
-0.286014
-0.286787
-0.270323
-0.242681
-0.208819
-0.172441
-0.136154
-0.101702
-0.070182
-0.042224
-0.018126
0.002053
0.018421
0.031179
0.040543
0.046678
0.049742
0.050059
0.048232
0.045005
0.041364
0.038326
0.035711
0.033105
0.029802
0.024892
0.017426
0.006652
-0.007676
-0.025035
-0.044022
-0.062497
-0.077972
-0.087057
-0.089427
-0.086504
-0.079265
-0.069082
-0.057357
-0.045297
-0.033816
-0.023523
-0.014760
-0.007679
-0.002314
0.001361
0.003408
0.003947
0.003203
0.001533
-0.000582
-0.002617
-0.004113
-0.004666
-0.004151
-0.002710
-0.000616
0.001798
0.004192
0.006262
0.007780
0.008638
0.008898
0.008858
0.009101
0.010535
0.014400
0.022252
0.044126
0.472040
0.471985
0.471699
0.470680
0.467969
0.461953
0.450109
0.428738
0.392763
0.335708
0.249993
0.128225
-0.031260
-0.206495
-0.300422
-0.332724
-0.330567
-0.305296
-0.265160
-0.214851
-0.161010
-0.109604
-0.064938
-0.027351
-0.005412
-0.008316
-0.035529
-0.081122
-0.136119
-0.189838
-0.230919
-0.248247
-0.247728
-0.233497
-0.210079
-0.181405
-0.150504
-0.119534
-0.089935
-0.062606
-0.038059
-0.016546
0.001861
0.017218
0.029675
0.039435
0.046703
0.051657
0.054479
0.055425
0.054822
0.053977
0.052061
0.049688
0.046813
0.042906
0.037164
0.028750
0.017064
0.002025
-0.015711
-0.034676
-0.052751
-0.067099
-0.075080
-0.077867
-0.075905
-0.070156
-0.061809
-0.052033
-0.041814
-0.031897
-0.022786
-0.014787
-0.008065
-0.002705
0.001255
0.003814
0.005023
0.005048
0.004188
0.002863
0.001544
0.000652
0.000568
0.001419
0.003109
0.005411
0.008026
0.010640
0.012971
0.014801
0.016028
0.016714
0.017148
0.017906
0.019900
0.024416
0.033141
0.057964
0.456722
0.456036
0.453966
0.450063
0.443487
0.432886
0.416276
0.390952
0.353520
0.300146
0.227240
0.133023
0.021124
-0.093773
-0.175667
-0.220533
-0.236176
-0.230090
-0.208719
-0.177475
-0.141362
-0.104952
-0.071375
-0.044849
-0.030960
-0.034120
-0.054448
-0.088024
-0.127956
-0.165567
-0.191521
-0.203352
-0.202879
-0.192254
-0.174418
-0.152191
-0.127877
-0.103175
-0.079240
-0.056782
-0.036202
-0.017698
-0.001358
0.012803
0.024825
0.034806
0.042886
0.049210
0.053887
0.057344
0.060198
0.061435
0.061308
0.060092
0.057783
0.054005
0.048134
0.039517
0.027736
0.012860
-0.004378
-0.022526
-0.039483
-0.052188
-0.060579
-0.064494
-0.064347
-0.060928
-0.055162
-0.047924
-0.039954
-0.031830
-0.023980
-0.016714
-0.010259
-0.004786
-0.000429
0.002748
0.004717
0.005603
0.005652
0.005231
0.004748
0.004639
0.005129
0.006378
0.008346
0.010852
0.013643
0.016439
0.018979
0.021057
0.022561
0.023527
0.024194
0.025072
0.027003
0.031201
0.039305
0.063712
0.442633
0.441435
0.437947
0.431839
0.422460
0.408773
0.389316
0.362228
0.325377
0.276693
0.214802
0.140135
0.056669
-0.026367
-0.093512
-0.138687
-0.162777
-0.169197
-0.162089
-0.145532
-0.123456
-0.099461
-0.076965
-0.059518
-0.050647
-0.052854
-0.066234
-0.088212
-0.114039
-0.137771
-0.154582
-0.162819
-0.162556
-0.155039
-0.142126
-0.125754
-0.107602
-0.088948
-0.070646
-0.053176
-0.036744
-0.021407
-0.007193
0.005837
0.017583
0.027958
0.036943
0.044584
0.051218
0.056889
0.061320
0.064361
0.066042
0.066380
0.065233
0.062262
0.056998
0.048989
0.037995
0.024178
0.008258
-0.008510
-0.023741
-0.036495
-0.045916
-0.051682
-0.054018
-0.053471
-0.050654
-0.046130
-0.040400
-0.033917
-0.027085
-0.020275
-0.013822
-0.008028
-0.003164
0.000728
0.003482
0.005241
0.006233
0.006752
0.007157
0.007737
0.008768
0.010393
0.012600
0.015257
0.018158
0.021068
0.023755
0.026016
0.027716
0.028833
0.029507
0.030119
0.031353
0.034215
0.040060
0.059078
0.430729
0.429085
0.424429
0.416619
0.405227
0.389519
0.368475
0.340874
0.305458
0.261225
0.207904
0.146615
0.080650
0.015874
-0.039918
-0.082020
-0.109326
-0.123002
-0.125382
-0.119290
-0.107692
-0.093503
-0.079546
-0.068525
-0.062818
-0.063947
-0.071964
-0.085266
-0.100896
-0.115458
-0.125983
-0.131016
-0.130373
-0.124752
-0.115359
-0.103546
-0.090535
-0.077248
-0.064236
-0.051681
-0.039485
-0.027413
-0.015296
-0.003184
0.008635
0.019780
0.029963
0.039222
0.047467
0.054569
0.060470
0.065076
0.068323
0.070116
0.070257
0.068439
0.064312
0.057580
0.048104
0.036036
0.021946
0.006714
-0.008417
-0.022154
-0.033417
-0.041591
-0.046682
-0.049050
-0.049035
-0.046896
-0.042940
-0.037579
-0.031245
-0.024465
-0.017684
-0.011279
-0.005727
-0.001185
0.002384
0.004957
0.006706
0.007924
0.008938
0.010038
0.011451
0.013303
0.015607
0.018280
0.021174
0.024111
0.026887
0.029292
0.031150
0.032343
0.032861
0.032887
0.032887
0.033475
0.035636
0.044944
0.421839
0.419700
0.413934
0.404697
0.391799
0.374748
0.352855
0.325343
0.291515
0.250980
0.203974
0.151735
0.096824
0.043134
-0.004775
-0.043544
-0.071699
-0.089370
-0.097787
-0.098820
-0.094636
-0.087494
-0.079602
-0.073002
-0.069369
-0.069725
-0.074149
-0.081696
-0.090627
-0.099058
-0.104859
-0.107098
-0.105607
-0.100863
-0.093749
-0.085288
-0.076407
-0.067757
-0.059613
-0.051839
-0.043945
-0.035245
-0.025172
-0.013644
-0.001234
0.011195
0.022974
0.033812
0.043543
0.052105
0.059443
0.065476
0.070106
0.073198
0.074560
0.073976
0.071237
0.066163
0.058609
0.048473
0.035512
0.020645
0.004624
-0.011133
-0.024938
-0.035632
-0.043084
-0.047745
-0.049839
-0.049298
-0.046262
-0.041338
-0.034872
-0.027578
-0.020477
-0.013751
-0.007590
-0.002393
0.001769
0.004940
0.007283
0.009035
0.010473
0.011856
0.013375
0.015169
0.017302
0.019766
0.022487
0.025365
0.028215
0.030792
0.032847
0.034137
0.034448
0.033557
0.031786
0.029813
0.028145
0.026685
0.416893
0.413884
0.406746
0.396119
0.381984
0.363982
0.341613
0.314383
0.281927
0.244189
0.201618
0.155384
0.107496
0.060705
0.018039
-0.018042
-0.046136
-0.065942
-0.078065
-0.083754
-0.084571
-0.082235
-0.078458
-0.074797
-0.072503
-0.072339
-0.074425
-0.078235
-0.082911
-0.086955
-0.089255
-0.089203
-0.086745
-0.082311
-0.076648
-0.070607
-0.064930
-0.060073
-0.056101
-0.052634
-0.048852
-0.043552
-0.035499
-0.024152
-0.010486
0.003295
0.016779
0.029333
0.040665
0.050682
0.059353
0.066626
0.072406
0.076552
0.078914
0.079407
0.078005
0.074649
0.068558
0.059398
0.047313
0.032076
0.014208
-0.004468
-0.021223
-0.033974
-0.042561
-0.048097
-0.051193
-0.051409
-0.048160
-0.042789
-0.036520
-0.029422
-0.021847
-0.014624
-0.008116
-0.002570
0.001947
0.005499
0.008247
0.010338
0.011981
0.013404
0.014719
0.016119
0.017767
0.019769
0.022137
0.024922
0.027925
0.030790
0.033201
0.034504
0.034295
0.032644
0.029592
0.025579
0.021107
0.012363
0.417532
0.412090
0.402834
0.390684
0.375463
0.356745
0.334062
0.307077
0.275610
0.239770
0.200087
0.157627
0.114035
0.071419
0.032032
-0.002197
-0.030009
-0.050915
-0.065179
-0.073758
-0.077743
-0.078462
-0.077270
-0.075409
-0.073867
-0.073282
-0.073876
-0.075440
-0.077261
-0.078534
-0.078568
-0.076995
-0.073856
-0.069571
-0.064805
-0.060300
-0.056671
-0.054247
-0.052968
-0.052360
-0.051549
-0.049165
-0.043196
-0.031711
-0.017895
-0.002424
0.012880
0.027068
0.039778
0.050946
0.060591
0.068705
0.075205
0.079946
0.082796
0.083846
0.083386
0.080356
0.074991
0.066901
0.055355
0.039701
0.020130
-0.001321
-0.020840
-0.035018
-0.043326
-0.047714
-0.049840
-0.050208
-0.048062
-0.043120
-0.036400
-0.029001
-0.021423
-0.014197
-0.007684
-0.002100
0.002498
0.006190
0.009198
0.011480
0.013165
0.014392
0.015424
0.016404
0.017467
0.018797
0.020678
0.023390
0.026644
0.029800
0.032171
0.033395
0.033182
0.031405
0.027874
0.022941
0.017081
0.007921
0.428225
0.413952
0.401608
0.388115
0.372116
0.352887
0.330007
0.303162
0.272244
0.237421
0.199232
0.158666
0.117176
0.076572
0.038774
0.005466
-0.022193
-0.043723
-0.059210
-0.069074
-0.074428
-0.076489
-0.076479
-0.075502
-0.074453
-0.073914
-0.074101
-0.074848
-0.075665
-0.075935
-0.075131
-0.072980
-0.069556
-0.065259
-0.060706
-0.056575
-0.053418
-0.051514
-0.050756
-0.050633
-0.050253
-0.048362
-0.043452
-0.034773
-0.020502
-0.003988
0.012315
0.027293
0.040590
0.052182
0.062124
0.070433
0.077035
0.081779
0.084496
0.085080
0.083480
0.080383
0.075205
0.067379
0.056238
0.041220
0.022458
0.001608
-0.018012
-0.033013
-0.042235
-0.047006
-0.049197
-0.048990
-0.046584
-0.041877
-0.035469
-0.028253
-0.020863
-0.013801
-0.007418
-0.001920
0.002627
0.006273
0.009070
0.011337
0.013092
0.014419
0.015487
0.016457
0.017492
0.018769
0.020468
0.022638
0.025613
0.028865
0.031425
0.032710
0.032403
0.030308
0.026687
0.021674
0.015461
0.007566
