# vtk DataFile Version 3.0
Vector Field
ASCII
DATASET RECTILINEAR_GRID
DIMENSIONS 100 26 1
X_COORDINATES 100 double
0.050000 0.150000 0.250000 0.350000 0.450000 0.550000 0.650000 0.750000 0.850000 0.950000 1.050000 1.150000 1.250000 1.350000 1.450000 1.550000 1.650000 1.750000 1.850000 1.950000 2.050000 2.150000 2.250000 2.350000 2.450000 2.550000 2.650000 2.750000 2.850000 2.950000 3.050000 3.150000 3.250000 3.350000 3.450000 3.550000 3.650000 3.750000 3.850000 3.950000 4.050000 4.150000 4.250000 4.350000 4.450000 4.550000 4.650000 4.750000 4.850000 4.950000 5.050000 5.150000 5.250000 5.350000 5.450000 5.550000 5.650000 5.750000 5.850000 5.950000 6.050000 6.150000 6.250000 6.350000 6.450000 6.550000 6.650000 6.750000 6.850000 6.950000 7.050000 7.150000 7.250000 7.350000 7.450000 7.550000 7.650000 7.750000 7.850000 7.950000 8.050000 8.150000 8.250000 8.350000 8.450000 8.550000 8.650000 8.750000 8.850000 8.950000 9.050000 9.150000 9.250000 9.350000 9.450000 9.550000 9.650000 9.750000 9.850000 9.950000 
Y_COORDINATES 26 double
0.050000 0.150000 0.250000 0.350000 0.450000 0.550000 0.650000 0.750000 0.850000 0.950000 1.050000 1.150000 1.250000 1.350000 1.450000 1.550000 1.650000 1.750000 1.850000 1.950000 2.050000 2.150000 2.250000 2.350000 2.450000 2.550000 
Z_COORDINATES 1 double
0.0
POINT_DATA 2600
VECTORS Vektorfeld double
0.997782 0.002218 0.0
0.993461 0.002102 0.0
0.990929 0.000430 0.0
0.992374 -0.001874 0.0
0.998635 -0.004387 0.0
1.009837 -0.006816 0.0
1.025534 -0.008881 0.0
1.044713 -0.010297 0.0
1.065819 -0.010810 0.0
1.086896 -0.010267 0.0
1.105848 -0.008686 0.0
1.120786 -0.006252 0.0
1.130290 -0.003253 0.0
1.133624 -0.000081 0.0
1.130696 0.003008 0.0
1.121750 0.005937 0.0
1.107248 0.008564 0.0
1.087919 0.010765 0.0
1.064715 0.012439 0.0
1.038763 0.013513 0.0
1.011308 0.013943 0.0
0.983642 0.013722 0.0
0.957036 0.012884 0.0
0.932648 0.011504 0.0
0.911437 0.009708 0.0
0.894060 0.007669 0.0
0.880777 0.005615 0.0
0.871346 0.003816 0.0
0.864965 0.002565 0.0
0.860263 0.002137 0.0
0.855401 0.002725 0.0
0.848299 0.004378 0.0
0.836953 0.006969 0.0
0.819753 0.010231 0.0
0.795695 0.013828 0.0
0.764452 0.017414 0.0
0.726365 0.020673 0.0
0.682360 0.023332 0.0
0.633853 0.025175 0.0
0.582644 0.026033 0.0
0.530819 0.025791 0.0
0.480686 0.024342 0.0
0.434907 0.021436 0.0
0.396950 0.016521 0.0
0.371238 0.009191 0.0
0.361311 0.000736 0.0
0.365532 -0.004957 0.0
0.378119 -0.007630 0.0
0.394437 -0.008688 0.0
0.411921 -0.008796 0.0
0.429020 -0.008303 0.0
0.444736 -0.007412 0.0
0.458401 -0.006253 0.0
0.469575 -0.004922 0.0
0.478013 -0.003516 0.0
0.483678 -0.002149 0.0
0.486765 -0.000938 0.0
0.487504 0.000199 0.0
0.485514 0.001791 0.0
0.479794 0.003929 0.0
0.469486 0.006380 0.0
0.454197 0.008910 0.0
0.434148 0.011139 0.0
0.410461 0.012548 0.0
0.385224 0.012689 0.0
0.361034 0.011501 0.0
0.340048 0.009485 0.0
0.323133 0.007430 0.0
0.309822 0.005881 0.0
0.299086 0.004854 0.0
0.290234 0.003999 0.0
0.283236 0.002998 0.0
0.278428 0.001810 0.0
0.275984 0.000634 0.0
0.275645 -0.000294 0.0
0.276843 -0.000905 0.0
0.279046 -0.001298 0.0
0.281945 -0.001600 0.0
0.285370 -0.001825 0.0
0.289152 -0.001957 0.0
0.293081 -0.001972 0.0
0.296898 -0.001845 0.0
0.300319 -0.001575 0.0
0.303080 -0.001186 0.0
0.304997 -0.000731 0.0
0.306006 -0.000278 0.0
0.306215 0.000068 0.0
0.305815 0.000332 0.0
0.304957 0.000525 0.0
0.303798 0.000635 0.0
0.302497 0.000666 0.0
0.301198 0.000633 0.0
0.300018 0.000547 0.0
0.299070 0.000401 0.0
0.298501 0.000168 0.0
0.298481 -0.000148 0.0
0.299154 -0.000525 0.0
0.300633 -0.000953 0.0
0.302875 -0.001288 0.0
0.305795 -0.001633 0.0
1.003077 0.001360 0.0
1.012051 -0.001694 0.0
1.026109 -0.007300 0.0
1.044624 -0.014104 0.0
1.067508 -0.021303 0.0
1.094613 -0.028207 0.0
1.125493 -0.034067 0.0
1.159269 -0.038066 0.0
1.194566 -0.039446 0.0
1.229573 -0.037714 0.0
1.262320 -0.032938 0.0
1.291075 -0.025693 0.0
1.314577 -0.016817 0.0
1.331949 -0.007221 0.0
1.342661 0.002364 0.0
1.346723 0.011465 0.0
1.344632 0.019629 0.0
1.337176 0.026484 0.0
1.325368 0.031732 0.0
1.310387 0.035153 0.0
1.293530 0.036616 0.0
1.276147 0.036098 0.0
1.259564 0.033698 0.0
1.244996 0.029646 0.0
1.233456 0.024317 0.0
1.225652 0.018240 0.0
1.221886 0.012093 0.0
1.221953 0.006701 0.0
1.225065 0.002949 0.0
1.229839 0.001681 0.0
1.234371 0.003511 0.0
1.236457 0.008608 0.0
1.233958 0.016584 0.0
1.225165 0.026608 0.0
1.209026 0.037649 0.0
1.185198 0.048663 0.0
1.154007 0.058702 0.0
1.116356 0.066960 0.0
1.073622 0.072789 0.0
1.027564 0.075686 0.0
0.980261 0.075266 0.0
0.934088 0.071175 0.0
0.891565 0.062905 0.0
0.854698 0.049875 0.0
0.823674 0.032573 0.0
0.796812 0.014143 0.0
0.775116 -0.000890 0.0
0.762350 -0.011518 0.0
0.759238 -0.018005 0.0
0.763752 -0.021478 0.0
0.773911 -0.022880 0.0
0.788235 -0.022876 0.0
0.805684 -0.021903 0.0
0.825456 -0.020217 0.0
0.846736 -0.017938 0.0
0.868427 -0.015083 0.0
0.888892 -0.011557 0.0
0.906052 -0.007080 0.0
0.918442 -0.001329 0.0
0.925754 0.005455 0.0
0.927985 0.012930 0.0
0.925092 0.020541 0.0
0.917224 0.027424 0.0
0.904638 0.032537 0.0
0.887452 0.035124 0.0
0.865588 0.035120 0.0
0.839120 0.033320 0.0
0.808818 0.030813 0.0
0.776455 0.028172 0.0
0.744619 0.025134 0.0
0.716140 0.021050 0.0
0.693450 0.015635 0.0
0.678055 0.009377 0.0
0.670214 0.003351 0.0
0.668857 -0.001314 0.0
0.672008 -0.004234 0.0
0.677913 -0.006077 0.0
0.685630 -0.007437 0.0
0.694540 -0.008323 0.0
0.704000 -0.008701 0.0
0.713377 -0.008533 0.0
0.722070 -0.007795 0.0
0.729543 -0.006519 0.0
0.735357 -0.004818 0.0
0.739239 -0.002898 0.0
0.741150 -0.001030 0.0
0.741184 0.000579 0.0
0.739406 0.002000 0.0
0.735944 0.003175 0.0
0.731063 0.004026 0.0
0.725106 0.004533 0.0
0.718460 0.004712 0.0
0.711524 0.004583 0.0
0.704708 0.004129 0.0
0.698448 0.003269 0.0
0.693302 0.001918 0.0
0.689965 0.000073 0.0
0.688910 -0.001975 0.0
0.690163 -0.003761 0.0
0.692895 -0.004813 0.0
1.001987 -0.003703 0.0
1.009136 -0.012755 0.0
1.022234 -0.023394 0.0
1.040767 -0.035057 0.0
1.064607 -0.047074 0.0
1.093648 -0.058583 0.0
1.127533 -0.068455 0.0
1.165382 -0.075302 0.0
1.205597 -0.077722 0.0
1.245789 -0.074637 0.0
1.283251 -0.066223 0.0
1.315769 -0.053681 0.0
1.341988 -0.038549 0.0
1.361340 -0.022213 0.0
1.373820 -0.005836 0.0
1.379785 0.009637 0.0
1.379837 0.023497 0.0
1.374747 0.035163 0.0
1.365447 0.044162 0.0
1.353013 0.050139 0.0
1.338622 0.052877 0.0
1.323516 0.052326 0.0
1.308941 0.048629 0.0
1.296084 0.042139 0.0
1.286016 0.033432 0.0
1.279631 0.023313 0.0
1.277591 0.012825 0.0
1.280240 0.003254 0.0
1.287403 -0.003879 0.0
1.298138 -0.007001 0.0
1.310721 -0.004922 0.0
1.322930 0.002745 0.0
1.332433 0.015443 0.0
1.337200 0.031774 0.0
1.335850 0.049972 0.0
1.327722 0.068297 0.0
1.312784 0.085197 0.0
1.291522 0.099377 0.0
1.264824 0.109803 0.0
1.233883 0.115671 0.0
1.200104 0.116362 0.0
1.164968 0.111387 0.0
1.129760 0.100424 0.0
1.095210 0.083773 0.0
1.061626 0.063284 0.0
1.029726 0.042194 0.0
1.000152 0.022329 0.0
0.973220 0.004961 0.0
0.950721 -0.008872 0.0
0.934648 -0.019052 0.0
0.925237 -0.026054 0.0
0.921938 -0.030728 0.0
0.924136 -0.033698 0.0
0.931253 -0.035310 0.0
0.942756 -0.035629 0.0
0.958154 -0.034482 0.0
0.977031 -0.031501 0.0
0.999027 -0.026291 0.0
1.023405 -0.018886 0.0
1.048636 -0.009531 0.0
1.072863 0.001460 0.0
1.094441 0.013325 0.0
1.112005 0.024944 0.0
1.124413 0.035196 0.0
1.130554 0.043509 0.0
1.129531 0.049621 0.0
1.121094 0.053723 0.0
1.105813 0.055994 0.0
1.084958 0.056209 0.0
1.060101 0.053790 0.0
1.032660 0.048313 0.0
1.003659 0.040064 0.0
0.973825 0.030176 0.0
0.944117 0.020100 0.0
0.916578 0.010833 0.0
0.894494 0.002552 0.0
0.880457 -0.004730 0.0
0.874308 -0.010351 0.0
0.874121 -0.014132 0.0
0.878205 -0.016437 0.0
0.885437 -0.017405 0.0
0.894903 -0.017083 0.0
0.905742 -0.015543 0.0
0.917087 -0.012952 0.0
0.928048 -0.009607 0.0
0.937716 -0.005901 0.0
0.945313 -0.002181 0.0
0.950575 0.001276 0.0
0.953734 0.004202 0.0
0.955187 0.006427 0.0
0.955404 0.007871 0.0
0.954881 0.008543 0.0
0.954057 0.008512 0.0
0.953225 0.007849 0.0
0.952439 0.006592 0.0
0.951420 0.004760 0.0
0.949560 0.002429 0.0
0.946475 -0.000191 0.0
0.942728 -0.003050 0.0
0.941628 -0.007156 0.0
1.001611 -0.007300 0.0
1.007884 -0.022580 0.0
1.020158 -0.038941 0.0
1.038388 -0.056274 0.0
1.062778 -0.074086 0.0
1.093590 -0.091425 0.0
1.130841 -0.106750 0.0
1.173859 -0.117873 0.0
1.220864 -0.122371 0.0
1.268341 -0.117658 0.0
1.311971 -0.104293 0.0
1.348680 -0.084839 0.0
1.377096 -0.062026 0.0
1.397005 -0.037998 0.0
1.408802 -0.014328 0.0
1.413192 0.007773 0.0
1.411044 0.027457 0.0
1.403328 0.044010 0.0
1.391123 0.056820 0.0
1.375632 0.065406 0.0
1.358165 0.069467 0.0
1.340090 0.068916 0.0
1.322790 0.063915 0.0
1.307602 0.054898 0.0
1.295774 0.042570 0.0
1.288438 0.027896 0.0
1.286610 0.012109 0.0
1.291083 -0.003151 0.0
1.302022 -0.015575 0.0
1.318539 -0.022556 0.0
1.338523 -0.021933 0.0
1.358889 -0.012820 0.0
1.376478 0.003916 0.0
1.388983 0.026028 0.0
1.395194 0.050857 0.0
1.394766 0.075967 0.0
1.387942 0.099289 0.0
1.375312 0.119178 0.0
1.357636 0.134377 0.0
1.335724 0.143950 0.0
1.310367 0.147220 0.0
1.282252 0.143780 0.0
1.251864 0.133627 0.0
1.219484 0.117501 0.0
1.185449 0.097175 0.0
1.150559 0.075092 0.0
1.116134 0.053431 0.0
1.083512 0.033412 0.0
1.053365 0.015324 0.0
1.026461 -0.000270 0.0
1.004277 -0.013241 0.0
0.987727 -0.023692 0.0
0.976809 -0.032013 0.0
0.971195 -0.038498 0.0
0.970504 -0.043252 0.0
0.974484 -0.046237 0.0
0.983195 -0.047335 0.0
0.997101 -0.046359 0.0
1.016945 -0.043040 0.0
1.043366 -0.037029 0.0
1.076240 -0.028143 0.0
1.114020 -0.016431 0.0
1.153499 -0.002342 0.0
1.190367 0.013207 0.0
1.220956 0.028767 0.0
1.243402 0.042940 0.0
1.257028 0.055214 0.0
1.261803 0.065010 0.0
1.258240 0.071610 0.0
1.247141 0.074346 0.0
1.229396 0.072942 0.0
1.206033 0.067800 0.0
1.178434 0.059873 0.0
1.148414 0.050130 0.0
1.117737 0.039018 0.0
1.087390 0.026797 0.0
1.058017 0.014435 0.0
1.031535 0.003114 0.0
1.010754 -0.006629 0.0
0.996938 -0.014208 0.0
0.989385 -0.019313 0.0
0.986830 -0.022087 0.0
0.988094 -0.022643 0.0
0.992048 -0.021152 0.0
0.997627 -0.017947 0.0
1.003914 -0.013515 0.0
1.010224 -0.008475 0.0
1.016086 -0.003555 0.0
1.021294 0.000667 0.0
1.025975 0.003828 0.0
1.030483 0.005745 0.0
1.035236 0.006438 0.0
1.040564 0.006114 0.0
1.046573 0.005071 0.0
1.053109 0.003621 0.0
1.059789 0.002071 0.0
1.066138 0.000629 0.0
1.071729 -0.000897 0.0
1.076263 -0.003131 0.0
1.080650 -0.010363 0.0
1.001424 -0.010335 0.0
1.007128 -0.031523 0.0
1.018662 -0.053806 0.0
1.036427 -0.077404 0.0
1.061152 -0.102070 0.0
1.093775 -0.126877 0.0
1.135125 -0.149899 0.0
1.185196 -0.167812 0.0
1.242537 -0.176777 0.0
1.301304 -0.169496 0.0
1.353523 -0.148302 0.0
1.395025 -0.119042 0.0
1.425163 -0.086376 0.0
1.444738 -0.053132 0.0
1.454822 -0.021074 0.0
1.456516 0.008437 0.0
1.450893 0.034564 0.0
1.439012 0.056499 0.0
1.422076 0.073471 0.0
1.401468 0.084853 0.0
1.378719 0.090238 0.0
1.355447 0.089491 0.0
1.333296 0.082790 0.0
1.313868 0.070639 0.0
1.298659 0.053866 0.0
1.289034 0.033562 0.0
1.286298 0.011006 0.0
1.291663 -0.011886 0.0
1.305740 -0.031856 0.0
1.327834 -0.044887 0.0
1.355561 -0.047312 0.0
1.384947 -0.037192 0.0
1.411148 -0.015502 0.0
1.430227 0.013862 0.0
1.440696 0.046343 0.0
1.442951 0.078654 0.0
1.438060 0.108316 0.0
1.427272 0.133568 0.0
1.411717 0.153219 0.0
1.392264 0.166474 0.0
1.369485 0.172832 0.0
1.343688 0.172081 0.0
1.314978 0.164423 0.0
1.283405 0.150659 0.0
1.249205 0.132253 0.0
1.213033 0.111076 0.0
1.175986 0.088919 0.0
1.139396 0.067135 0.0
1.104579 0.046566 0.0
1.072510 0.027460 0.0
1.043723 0.010001 0.0
1.018762 -0.005423 0.0
0.997969 -0.018571 0.0
0.981024 -0.029383 0.0
0.967473 -0.038125 0.0
0.957314 -0.045185 0.0
0.951282 -0.051066 0.0
0.950873 -0.056125 0.0
0.958029 -0.060274 0.0
0.974556 -0.062742 0.0
1.001508 -0.062256 0.0
1.038859 -0.057450 0.0
1.085396 -0.047340 0.0
1.138482 -0.031748 0.0
1.193311 -0.011697 0.0
1.243232 0.011038 0.0
1.283005 0.033718 0.0
1.311107 0.053629 0.0
1.327980 0.069681 0.0
1.334304 0.081050 0.0
1.330942 0.087344 0.0
1.318998 0.088705 0.0
1.299889 0.085677 0.0
1.275287 0.078949 0.0
1.246928 0.069236 0.0
1.216490 0.057365 0.0
1.185555 0.044175 0.0
1.155250 0.030161 0.0
1.126204 0.016151 0.0
1.099622 0.003409 0.0
1.077401 -0.007156 0.0
1.060539 -0.014826 0.0
1.048575 -0.019204 0.0
1.040388 -0.020358 0.0
1.034747 -0.018679 0.0
1.030547 -0.014869 0.0
1.026968 -0.009852 0.0
1.023569 -0.004642 0.0
1.020305 -0.000191 0.0
1.017529 0.002781 0.0
1.015880 0.003933 0.0
1.016070 0.003306 0.0
1.018726 0.001263 0.0
1.024251 -0.001614 0.0
1.032718 -0.004697 0.0
1.043823 -0.007397 0.0
1.056905 -0.009334 0.0
1.070972 -0.010593 0.0
1.084768 -0.011765 0.0
1.096127 -0.017474 0.0
1.001236 -0.012995 0.0
1.006256 -0.039587 0.0
1.016643 -0.067664 0.0
1.033201 -0.097870 0.0
1.057291 -0.130418 0.0
1.090859 -0.164720 0.0
1.136212 -0.198760 0.0
1.194997 -0.227807 0.0
1.268059 -0.247185 0.0
1.343825 -0.233622 0.0
1.405656 -0.198227 0.0
1.449683 -0.154647 0.0
1.478582 -0.109808 0.0
1.495535 -0.066228 0.0
1.502483 -0.025011 0.0
1.500586 0.012576 0.0
1.490719 0.045914 0.0
1.473779 0.073971 0.0
1.451009 0.095706 0.0
1.423961 0.110275 0.0
1.394405 0.117121 0.0
1.364248 0.116037 0.0
1.335438 0.107204 0.0
1.309872 0.091218 0.0
1.289281 0.069088 0.0
1.275112 0.042134 0.0
1.268525 0.011756 0.0
1.270820 -0.020295 0.0
1.283292 -0.049996 0.0
1.306144 -0.071694 0.0
1.337903 -0.079991 0.0
1.375242 -0.071238 0.0
1.412661 -0.045077 0.0
1.443082 -0.006061 0.0
1.461743 0.037137 0.0
1.468692 0.078657 0.0
1.466196 0.115700 0.0
1.456519 0.146649 0.0
1.441500 0.170711 0.0
1.422399 0.187537 0.0
1.399933 0.197014 0.0
1.374401 0.199228 0.0
1.345847 0.194540 0.0
1.314260 0.183702 0.0
1.279795 0.167873 0.0
1.242945 0.148477 0.0
1.204571 0.126938 0.0
1.165814 0.104463 0.0
1.127911 0.081958 0.0
1.091957 0.060090 0.0
1.058621 0.039494 0.0
1.027822 0.020843 0.0
0.998777 0.005001 0.0
0.970487 -0.007720 0.0
0.942374 -0.018123 0.0
0.915256 -0.027910 0.0
0.891759 -0.038811 0.0
0.875535 -0.051747 0.0
0.870020 -0.066294 0.0
0.877323 -0.080552 0.0
0.897863 -0.091938 0.0
0.930817 -0.098072 0.0
0.974732 -0.097170 0.0
1.027830 -0.088102 0.0
1.088040 -0.070382 0.0
1.152533 -0.044692 0.0
1.216039 -0.013831 0.0
1.270874 0.018240 0.0
1.312057 0.047015 0.0
1.339346 0.070104 0.0
1.353982 0.087017 0.0
1.357286 0.097673 0.0
1.350751 0.102353 0.0
1.336027 0.101599 0.0
1.314842 0.096130 0.0
1.288937 0.086814 0.0
1.259998 0.074599 0.0
1.229590 0.060450 0.0
1.199117 0.045380 0.0
1.169642 0.030237 0.0
1.141779 0.016100 0.0
1.116154 0.004405 0.0
1.093422 -0.003739 0.0
1.073549 -0.007762 0.0
1.055656 -0.007742 0.0
1.038542 -0.004491 0.0
1.021327 0.000565 0.0
1.003925 0.005742 0.0
0.987097 0.009516 0.0
0.972108 0.010839 0.0
0.960300 0.009332 0.0
0.952792 0.005225 0.0
0.950305 -0.000825 0.0
0.953115 -0.007861 0.0
0.960972 -0.014773 0.0
0.973123 -0.020577 0.0
0.988491 -0.024604 0.0
1.005741 -0.026642 0.0
1.023238 -0.027008 0.0
1.037588 -0.027940 0.0
1.000961 -0.015192 0.0
1.004907 -0.046355 0.0
1.013262 -0.079638 0.0
1.027113 -0.116305 0.0
1.048428 -0.157388 0.0
1.080385 -0.203275 0.0
1.127621 -0.252794 0.0
1.195301 -0.300238 0.0
1.292156 -0.344672 0.0
1.390853 -0.310597 0.0
1.455831 -0.248061 0.0
1.492124 -0.185133 0.0
1.511753 -0.127850 0.0
1.521771 -0.075156 0.0
1.524289 -0.025548 0.0
1.518942 0.020357 0.0
1.505241 0.061700 0.0
1.483553 0.096813 0.0
1.455013 0.124173 0.0
1.421253 0.142616 0.0
1.384210 0.151377 0.0
1.346015 0.150134 0.0
1.308879 0.139054 0.0
1.274958 0.118855 0.0
1.246161 0.090840 0.0
1.223842 0.056870 0.0
1.208345 0.019104 0.0
1.199689 -0.021282 0.0
1.199553 -0.061345 0.0
1.210370 -0.094014 0.0
1.233720 -0.112780 0.0
1.269944 -0.112012 0.0
1.316357 -0.088135 0.0
1.365391 -0.042457 0.0
1.405096 0.015166 0.0
1.428794 0.069981 0.0
1.438591 0.117075 0.0
1.438142 0.155399 0.0
1.430171 0.184950 0.0
1.416474 0.206096 0.0
1.398116 0.219279 0.0
1.375654 0.224956 0.0
1.349352 0.223668 0.0
1.319376 0.216136 0.0
1.285983 0.203296 0.0
1.249652 0.186237 0.0
1.211138 0.166067 0.0
1.171425 0.143804 0.0
1.131581 0.120365 0.0
1.092467 0.096752 0.0
1.054313 0.074323 0.0
1.016350 0.054776 0.0
0.976996 0.039468 0.0
0.934966 0.028134 0.0
0.890918 0.018184 0.0
0.848326 0.005492 0.0
0.812744 -0.013134 0.0
0.789717 -0.038174 0.0
0.782205 -0.066840 0.0
0.789802 -0.094906 0.0
0.810365 -0.118686 0.0
0.841684 -0.135598 0.0
0.882092 -0.143966 0.0
0.930379 -0.142691 0.0
0.985493 -0.131117 0.0
1.046207 -0.109163 0.0
1.110834 -0.077492 0.0
1.176430 -0.038530 0.0
1.236603 0.002429 0.0
1.284345 0.039659 0.0
1.317539 0.069632 0.0
1.337346 0.091947 0.0
1.345231 0.106729 0.0
1.342777 0.114401 0.0
1.331649 0.115640 0.0
1.313541 0.111318 0.0
1.290122 0.102453 0.0
1.262983 0.090144 0.0
1.233579 0.075563 0.0
1.203145 0.059963 0.0
1.172600 0.044782 0.0
1.142393 0.031555 0.0
1.112397 0.021839 0.0
1.082108 0.016821 0.0
1.051056 0.016620 0.0
1.019252 0.020066 0.0
0.987489 0.024986 0.0
0.957294 0.028919 0.0
0.930555 0.029907 0.0
0.909037 0.026955 0.0
0.893987 0.020075 0.0
0.885937 0.010040 0.0
0.884734 -0.001950 0.0
0.889630 -0.014442 0.0
0.899488 -0.025908 0.0
0.913058 -0.035162 0.0
0.929090 -0.041419 0.0
0.946281 -0.044268 0.0
0.963084 -0.043682 0.0
0.976716 -0.039247 0.0
1.000554 -0.016708 0.0
1.002858 -0.051088 0.0
1.007900 -0.088301 0.0
1.016790 -0.130382 0.0
1.031749 -0.179586 0.0
1.056945 -0.238229 0.0
1.099833 -0.307964 0.0
1.171970 -0.384885 0.0
1.301751 -0.486661 0.0
1.421627 -0.387181 0.0
1.463142 -0.277971 0.0
1.467679 -0.196054 0.0
1.463877 -0.132756 0.0
1.461493 -0.077886 0.0
1.460064 -0.023907 0.0
1.454326 0.029801 0.0
1.440418 0.079865 0.0
1.417636 0.123117 0.0
1.386734 0.157310 0.0
1.349114 0.180860 0.0
1.306569 0.192720 0.0
1.261170 0.192386 0.0
1.215125 0.179984 0.0
1.170562 0.156408 0.0
1.129243 0.123403 0.0
1.092256 0.083612 0.0
1.059603 0.040511 0.0
1.029215 -0.003646 0.0
1.001686 -0.051316 0.0
0.984517 -0.097690 0.0
0.986686 -0.134624 0.0
1.012921 -0.152627 0.0
1.062469 -0.143482 0.0
1.129845 -0.103520 0.0
1.203934 -0.037566 0.0
1.266838 0.036111 0.0
1.309301 0.098686 0.0
1.335216 0.148322 0.0
1.348728 0.186485 0.0
1.352425 0.214561 0.0
1.347946 0.233651 0.0
1.336377 0.244615 0.0
1.318488 0.248200 0.0
1.294911 0.245157 0.0
1.266268 0.236311 0.0
1.233272 0.222550 0.0
1.196760 0.204781 0.0
1.157645 0.183918 0.0
1.116691 0.161048 0.0
1.074046 0.137828 0.0
1.028718 0.116729 0.0
0.978773 0.100278 0.0
0.923042 0.089052 0.0
0.863692 0.079930 0.0
0.807156 0.066972 0.0
0.761614 0.044838 0.0
0.732726 0.011992 0.0
0.721316 -0.028862 0.0
0.724643 -0.071967 0.0
0.739123 -0.111858 0.0
0.761974 -0.145147 0.0
0.791532 -0.170015 0.0
0.826992 -0.185417 0.0
0.868044 -0.190579 0.0
0.914548 -0.184847 0.0
0.966223 -0.167823 0.0
1.022414 -0.139650 0.0
1.081868 -0.101422 0.0
1.142504 -0.055488 0.0
1.199606 -0.007269 0.0
1.246549 0.036422 0.0
1.280238 0.071661 0.0
1.301298 0.098071 0.0
1.310914 0.115896 0.0
1.310476 0.125711 0.0
1.301469 0.128362 0.0
1.285395 0.124903 0.0
1.263690 0.116538 0.0
1.237640 0.104623 0.0
1.208268 0.090710 0.0
1.176230 0.076619 0.0
1.141787 0.064367 0.0
1.104970 0.055840 0.0
1.065951 0.052129 0.0
1.025441 0.052874 0.0
0.984899 0.056159 0.0
0.946424 0.059130 0.0
0.912353 0.059042 0.0
0.884715 0.054161 0.0
0.864806 0.044127 0.0
0.853005 0.029754 0.0
0.848860 0.012556 0.0
0.851297 -0.005700 0.0
0.858862 -0.023153 0.0
0.870074 -0.038268 0.0
0.883674 -0.049971 0.0
0.898577 -0.057545 0.0
0.913740 -0.060495 0.0
0.927978 -0.058497 0.0
0.939461 -0.049547 0.0
1.000009 -0.017271 0.0
1.000076 -0.052895 0.0
1.000424 -0.091885 0.0
1.001722 -0.136985 0.0
1.005600 -0.191821 0.0
1.015856 -0.261446 0.0
1.041244 -0.353024 0.0
1.101104 -0.471822 0.0
1.260001 -0.688402 0.0
1.370642 -0.415955 0.0
1.328990 -0.249059 0.0
1.266969 -0.167480 0.0
1.224933 -0.115492 0.0
1.206241 -0.074074 0.0
1.206727 -0.026776 0.0
1.211620 0.033515 0.0
1.208996 0.092685 0.0
1.196922 0.145153 0.0
1.175068 0.188029 0.0
1.143616 0.219214 0.0
1.103325 0.237203 0.0
1.055428 0.241200 0.0
1.001267 0.231376 0.0
0.941568 0.209277 0.0
0.875726 0.177694 0.0
0.802974 0.139061 0.0
0.727012 0.093678 0.0
0.659684 0.040904 0.0
0.613564 -0.022217 0.0
0.597427 -0.093483 0.0
0.613768 -0.157341 0.0
0.657352 -0.199727 0.0
0.722307 -0.210885 0.0
0.804604 -0.185790 0.0
0.900631 -0.125411 0.0
1.002175 -0.040493 0.0
1.090596 0.044406 0.0
1.155212 0.112072 0.0
1.200523 0.163912 0.0
1.230739 0.203222 0.0
1.248241 0.231968 0.0
1.254662 0.251447 0.0
1.251290 0.262628 0.0
1.239249 0.266348 0.0
1.219587 0.263425 0.0
1.193318 0.254700 0.0
1.161406 0.241055 0.0
1.124601 0.223563 0.0
1.083089 0.203868 0.0
1.036109 0.184634 0.0
0.982256 0.169104 0.0
0.921184 0.158919 0.0
0.856012 0.151313 0.0
0.793983 0.139047 0.0
0.743735 0.114638 0.0
0.711058 0.075390 0.0
0.696790 0.024597 0.0
0.697799 -0.031066 0.0
0.709430 -0.084721 0.0
0.727825 -0.131980 0.0
0.750712 -0.170762 0.0
0.776992 -0.200238 0.0
0.806364 -0.220025 0.0
0.839056 -0.229716 0.0
0.875564 -0.228721 0.0
0.916338 -0.216399 0.0
0.961487 -0.192413 0.0
1.010558 -0.157184 0.0
1.062441 -0.112245 0.0
1.115293 -0.060465 0.0
1.165251 -0.007283 0.0
1.206827 0.040100 0.0
1.237147 0.078252 0.0
1.256378 0.106868 0.0
1.265291 0.126263 0.0
1.264943 0.137165 0.0
1.256500 0.140617 0.0
1.241113 0.137915 0.0
1.219797 0.130611 0.0
1.193336 0.120554 0.0
1.162250 0.109899 0.0
1.126895 0.100885 0.0
1.087743 0.095290 0.0
1.045752 0.093688 0.0
1.002618 0.094958 0.0
0.960729 0.096506 0.0
0.922763 0.095223 0.0
0.891094 0.088689 0.0
0.867280 0.075966 0.0
0.851843 0.057669 0.0
0.844367 0.035489 0.0
0.843780 0.011553 0.0
0.848622 -0.011976 0.0
0.857324 -0.033144 0.0
0.868489 -0.050654 0.0
0.880976 -0.063672 0.0
0.893860 -0.071631 0.0
0.906337 -0.074049 0.0
0.917619 -0.070463 0.0
0.926652 -0.058097 0.0
0.999377 -0.016657 0.0
0.996828 -0.051026 0.0
0.991539 -0.088814 0.0
0.983219 -0.133035 0.0
0.971678 -0.188108 0.0
0.957529 -0.261265 0.0
0.944548 -0.365610 0.0
0.948361 -0.522909 0.0
1.054226 -0.902078 0.0
1.055855 -0.204778 0.0
0.865729 -0.106903 0.0
0.724117 -0.094218 0.0
0.653245 -0.075847 0.0
0.626774 -0.068555 0.0
0.645371 -0.051378 0.0
0.691558 0.007038 0.0
0.734435 0.078910 0.0
0.761541 0.143897 0.0
0.772286 0.200394 0.0
0.764859 0.245728 0.0
0.738029 0.277810 0.0
0.690930 0.295588 0.0
0.623103 0.298976 0.0
0.536156 0.288323 0.0
0.437384 0.263262 0.0
0.342116 0.221512 0.0
0.270656 0.158648 0.0
0.238464 0.075455 0.0
0.247250 -0.019434 0.0
0.283840 -0.116720 0.0
0.333967 -0.200572 0.0
0.393131 -0.259244 0.0
0.462004 -0.285196 0.0
0.542379 -0.274152 0.0
0.635331 -0.226028 0.0
0.740149 -0.146239 0.0
0.850631 -0.048752 0.0
0.949111 0.042134 0.0
1.024357 0.113291 0.0
1.079986 0.167999 0.0
1.119617 0.210058 0.0
1.145188 0.241365 0.0
1.158155 0.263115 0.0
1.159812 0.276245 0.0
1.151375 0.281627 0.0
1.133965 0.280176 0.0
1.108490 0.272967 0.0
1.075397 0.261548 0.0
1.034415 0.248376 0.0
0.984790 0.236730 0.0
0.926655 0.228995 0.0
0.863167 0.223590 0.0
0.801390 0.213591 0.0
0.750097 0.190092 0.0
0.715596 0.148342 0.0
0.699213 0.090745 0.0
0.698201 0.024523 0.0
0.708120 -0.041919 0.0
0.724752 -0.102131 0.0
0.745057 -0.153271 0.0
0.767156 -0.194457 0.0
0.790056 -0.225724 0.0
0.813516 -0.247370 0.0
0.837948 -0.259496 0.0
0.864253 -0.261754 0.0
0.893509 -0.253396 0.0
0.926579 -0.233634 0.0
0.963765 -0.202220 0.0
1.004640 -0.159967 0.0
1.048061 -0.109015 0.0
1.092220 -0.052850 0.0
1.133582 0.002729 0.0
1.167837 0.051048 0.0
1.192865 0.089813 0.0
1.208501 0.118768 0.0
1.215155 0.138355 0.0
1.213511 0.149514 0.0
1.204331 0.153586 0.0
1.188316 0.152271 0.0
1.166038 0.147632 0.0
1.137979 0.141967 0.0
1.104716 0.137436 0.0
1.067217 0.135389 0.0
1.027113 0.135684 0.0
0.986734 0.136474 0.0
0.948824 0.134790 0.0
0.915977 0.127752 0.0
0.890086 0.113720 0.0
0.872029 0.092805 0.0
0.861706 0.066590 0.0
0.858302 0.037449 0.0
0.860592 0.007891 0.0
0.867123 -0.019687 0.0
0.876432 -0.043445 0.0
0.887243 -0.062330 0.0
0.898508 -0.075749 0.0
0.909409 -0.083338 0.0
0.919337 -0.084747 0.0
0.927851 -0.079561 0.0
0.934500 -0.064680 0.0
0.998769 -0.014803 0.0
0.993694 -0.045256 0.0
0.982903 -0.078505 0.0
0.964938 -0.117060 0.0
0.937088 -0.164692 0.0
0.894375 -0.227819 0.0
0.827083 -0.318782 0.0
0.716364 -0.462831 0.0
0.323529 -0.784956 0.0
-0.480991 0.285072 0.0
-0.480991 0.000000 0.0
-0.034596 -0.023862 0.0
-0.051610 -0.069050 0.0
0.005670 -0.106160 0.0
0.092830 -0.119532 0.0
0.188395 -0.066560 0.0
0.271786 0.026239 0.0
0.327995 0.113252 0.0
0.357391 0.190897 0.0
0.361823 0.258219 0.0
0.340966 0.313006 0.0
0.295396 0.353060 0.0
0.229438 0.375290 0.0
0.153789 0.374605 0.0
0.084737 0.344805 0.0
0.037953 0.282022 0.0
0.025317 0.182234 0.0
0.048377 0.061001 0.0
0.093274 -0.058663 0.0
0.145132 -0.165938 0.0
0.198122 -0.254471 0.0
0.252089 -0.318476 0.0
0.309976 -0.352723 0.0
0.376046 -0.353070 0.0
0.453913 -0.317928 0.0
0.544900 -0.250145 0.0
0.647361 -0.157789 0.0
0.754852 -0.054799 0.0
0.851606 0.038223 0.0
0.927331 0.111714 0.0
0.984582 0.169460 0.0
1.026176 0.214798 0.0
1.053620 0.249271 0.0
1.068130 0.273922 0.0
1.070812 0.289705 0.0
1.062623 0.297697 0.0
1.044206 0.299338 0.0
1.015705 0.296771 0.0
0.976905 0.292936 0.0
0.928202 0.290499 0.0
0.872358 0.289204 0.0
0.815658 0.283570 0.0
0.766579 0.264466 0.0
0.732132 0.224958 0.0
0.714837 0.165273 0.0
0.712862 0.092171 0.0
0.722362 0.014608 0.0
0.739166 -0.058727 0.0
0.759749 -0.122539 0.0
0.781671 -0.175091 0.0
0.803256 -0.216319 0.0
0.823467 -0.246972 0.0
0.841936 -0.268051 0.0
0.859016 -0.280328 0.0
0.875753 -0.283964 0.0
0.893675 -0.278363 0.0
0.914368 -0.262430 0.0
0.938977 -0.235220 0.0
0.967838 -0.196703 0.0
1.000404 -0.148266 0.0
1.035404 -0.092758 0.0
1.070946 -0.034267 0.0
1.103690 0.021045 0.0
1.130364 0.068114 0.0
1.149584 0.105611 0.0
1.160978 0.133464 0.0
1.164648 0.152379 0.0
1.160907 0.163643 0.0
1.150124 0.169011 0.0
1.132692 0.170601 0.0
1.109113 0.170635 0.0
1.080213 0.170931 0.0
1.047383 0.172223 0.0
1.012683 0.173656 0.0
0.978670 0.172893 0.0
0.947951 0.167000 0.0
0.922632 0.153707 0.0
0.903943 0.132344 0.0
0.892188 0.103994 0.0
0.886943 0.070969 0.0
0.887335 0.036080 0.0
0.892245 0.002060 0.0
0.900358 -0.028500 0.0
0.910335 -0.053917 0.0
0.920998 -0.073332 0.0
0.931365 -0.086379 0.0
0.940692 -0.092937 0.0
0.948512 -0.092896 0.0
0.954648 -0.086062 0.0
0.959099 -0.069278 0.0
0.998314 -0.011886 0.0
0.991369 -0.036154 0.0
0.976561 -0.062009 0.0
0.951726 -0.090755 0.0
0.912677 -0.124097 0.0
0.851332 -0.164356 0.0
0.750900 -0.214521 0.0
0.571362 -0.276836 0.0
0.227337 -0.338148 0.0
0.000000 0.285072 0.0
-0.000000 -0.000000 0.0
0.000000 0.000000 0.0
-0.043064 -0.043316 0.0
-0.088493 -0.143492 0.0
-0.083395 -0.174458 0.0
-0.063408 -0.127185 0.0
-0.029647 -0.030288 0.0
0.008040 0.075884 0.0
0.032542 0.174368 0.0
0.039024 0.263834 0.0
0.026587 0.340685 0.0
-0.001645 0.399183 0.0
-0.037700 0.431179 0.0
-0.070104 0.426769 0.0
-0.086715 0.378304 0.0
-0.079449 0.288041 0.0
-0.040771 0.150172 0.0
0.019961 0.009271 0.0
0.081751 -0.113622 0.0
0.137432 -0.218518 0.0
0.185927 -0.303376 0.0
0.228152 -0.365764 0.0
0.267828 -0.402999 0.0
0.310915 -0.411951 0.0
0.363858 -0.389857 0.0
0.431083 -0.336428 0.0
0.513049 -0.255932 0.0
0.606156 -0.157252 0.0
0.702995 -0.052917 0.0
0.790078 0.040046 0.0
0.859141 0.114813 0.0
0.911886 0.175107 0.0
0.950107 0.223298 0.0
0.974851 0.260642 0.0
0.986933 0.288221 0.0
0.986962 0.307341 0.0
0.975250 0.319824 0.0
0.951895 0.328141 0.0
0.917424 0.334837 0.0
0.874107 0.340618 0.0
0.827155 0.341881 0.0
0.784226 0.330521 0.0
0.752647 0.298172 0.0
0.736234 0.242112 0.0
0.734504 0.167144 0.0
0.744458 0.082321 0.0
0.762491 -0.003076 0.0
0.784977 -0.080332 0.0
0.808908 -0.145448 0.0
0.832227 -0.197423 0.0
0.853412 -0.236757 0.0
0.871429 -0.264763 0.0
0.885785 -0.283086 0.0
0.896649 -0.293237 0.0
0.904961 -0.296104 0.0
0.912395 -0.291580 0.0
0.921059 -0.278571 0.0
0.932928 -0.255558 0.0
0.949254 -0.221552 0.0
0.970234 -0.176964 0.0
0.995083 -0.123910 0.0
1.022338 -0.065912 0.0
1.049873 -0.007588 0.0
1.074776 0.045170 0.0
1.094677 0.089434 0.0
1.108501 0.124423 0.0
1.115781 0.150470 0.0
1.116385 0.168690 0.0
1.110376 0.180756 0.0
1.098003 0.188661 0.0
1.079821 0.194337 0.0
1.056868 0.199082 0.0
1.030800 0.202970 0.0
1.003819 0.204591 0.0
0.978338 0.201451 0.0
0.956502 0.190999 0.0
0.939763 0.171767 0.0
0.928746 0.143990 0.0
0.923378 0.109470 0.0
0.923151 0.070966 0.0
0.927314 0.031529 0.0
0.934890 -0.005874 0.0
0.944678 -0.038467 0.0
0.955463 -0.064712 0.0
0.966171 -0.083909 0.0
0.975909 -0.095906 0.0
0.984022 -0.100850 0.0
0.990153 -0.098936 0.0
0.994302 -0.090307 0.0
0.996774 -0.071956 0.0
0.998102 -0.008302 0.0
0.990314 -0.025003 0.0
0.973834 -0.041873 0.0
0.946590 -0.058813 0.0
0.904851 -0.075251 0.0
0.842374 -0.089379 0.0
0.749674 -0.096366 0.0
0.615357 -0.081137 0.0
0.435607 -0.004358 0.0
0.167433 0.149486 0.0
0.000000 0.000000 0.0
-0.000000 -0.000000 0.0
0.000000 0.000000 0.0
-0.068307 -0.070564 0.0
-0.148826 -0.169710 0.0
-0.167083 -0.133662 0.0
-0.173449 -0.051207 0.0
-0.166566 0.052233 0.0
-0.151753 0.158705 0.0
-0.139618 0.260880 0.0
-0.134159 0.350616 0.0
-0.134018 0.417345 0.0
-0.133855 0.448908 0.0
-0.126159 0.433749 0.0
-0.097703 0.359479 0.0
-0.035813 0.237710 0.0
0.043867 0.082146 0.0
0.117929 -0.057496 0.0
0.182520 -0.173237 0.0
0.236686 -0.268749 0.0
0.278555 -0.343508 0.0
0.308292 -0.397594 0.0
0.328591 -0.431144 0.0
0.345090 -0.443391 0.0
0.365833 -0.432104 0.0
0.399014 -0.394587 0.0
0.449616 -0.330342 0.0
0.517173 -0.243507 0.0
0.596376 -0.142704 0.0
0.678625 -0.039499 0.0
0.752221 0.051698 0.0
0.810946 0.126751 0.0
0.855770 0.188609 0.0
0.887470 0.238886 0.0
0.906502 0.278862 0.0
0.913112 0.310061 0.0
0.907462 0.334465 0.0
0.890071 0.354245 0.0
0.862727 0.370548 0.0
0.829516 0.381434 0.0
0.796891 0.380645 0.0
0.771853 0.359724 0.0
0.759111 0.313290 0.0
0.759567 0.242953 0.0
0.771292 0.156307 0.0
0.791475 0.063022 0.0
0.816857 -0.027191 0.0
0.844060 -0.105906 0.0
0.870524 -0.170270 0.0
0.894475 -0.219870 0.0
0.914643 -0.255663 0.0
0.930169 -0.279399 0.0
0.940592 -0.293230 0.0
0.945950 -0.299315 0.0
0.946942 -0.299329 0.0
0.945084 -0.293930 0.0
0.942633 -0.282434 0.0
0.942157 -0.263088 0.0
0.945826 -0.234017 0.0
0.954783 -0.194437 0.0
0.968929 -0.145431 0.0
0.987168 -0.089884 0.0
1.007821 -0.031803 0.0
1.028526 0.023777 0.0