# vtk DataFile Version 3.0
Scalar Field
ASCII
DATASET RECTILINEAR_GRID
DIMENSIONS 100 26 1
X_COORDINATES 100 double
0.050000 0.150000 0.250000 0.350000 0.450000 0.550000 0.650000 0.750000 0.850000 0.950000 1.050000 1.150000 1.250000 1.350000 1.450000 1.550000 1.650000 1.750000 1.850000 1.950000 2.050000 2.150000 2.250000 2.350000 2.450000 2.550000 2.650000 2.750000 2.850000 2.950000 3.050000 3.150000 3.250000 3.350000 3.450000 3.550000 3.650000 3.750000 3.850000 3.950000 4.050000 4.150000 4.250000 4.350000 4.450000 4.550000 4.650000 4.750000 4.850000 4.950000 5.050000 5.150000 5.250000 5.350000 5.450000 5.550000 5.650000 5.750000 5.850000 5.950000 6.050000 6.150000 6.250000 6.350000 6.450000 6.550000 6.650000 6.750000 6.850000 6.950000 7.050000 7.150000 7.250000 7.350000 7.450000 7.550000 7.650000 7.750000 7.850000 7.950000 8.050000 8.150000 8.250000 8.350000 8.450000 8.550000 8.650000 8.750000 8.850000 8.950000 9.050000 9.150000 9.250000 9.350000 9.450000 9.550000 9.650000 9.750000 9.850000 9.950000 
Y_COORDINATES 26 double
0.050000 0.150000 0.250000 0.350000 0.450000 0.550000 0.650000 0.750000 0.850000 0.950000 1.050000 1.150000 1.250000 1.350000 1.450000 1.550000 1.650000 1.750000 1.850000 1.950000 2.050000 2.150000 2.250000 2.350000 2.450000 2.550000 
Z_COORDINATES 1 double
0.0
POINT_DATA 2600
SCALARS Skalarfeld double 1
LOOKUP_TABLE default
0.087921
0.084001
0.075798
0.063040
0.045696
0.023893
-0.002010
-0.031208
-0.062213
-0.092819
-0.120447
-0.142779
-0.158330
-0.166554
-0.168013
-0.163923
-0.155785
-0.145082
-0.133085
-0.120760
-0.108773
-0.097530
-0.087242
-0.077990
-0.069769
-0.062528
-0.056191
-0.050671
-0.045882
-0.041739
-0.038163
-0.035085
-0.032437
-0.030164
-0.028214
-0.026544
-0.025115
-0.023895
-0.022855
-0.021970
-0.021219
-0.020583
-0.020047
-0.019598
-0.019225
-0.018916
-0.018664
-0.018462
-0.018303
-0.018182
-0.018093
-0.018034
-0.018000
-0.017987
-0.017995
-0.018019
-0.018058
-0.018111
-0.018175
-0.018249
-0.018333
-0.018424
-0.018523
-0.018628
-0.018738
-0.018853
-0.018972
-0.019095
-0.019222
-0.019351
-0.019483
-0.019618
-0.019754
-0.019892
-0.020032
-0.020174
-0.020317
-0.020460
-0.020605
-0.020751
-0.020898
-0.021046
-0.021195
-0.021344
-0.021495
-0.021647
-0.021799
-0.021953
-0.022109
-0.022267
-0.022427
-0.022591
-0.022759
-0.022933
-0.023116
-0.023313
-0.023530
-0.023786
-0.024120
-0.024323
0.091302
0.088206
0.080122
0.067123
0.049211
0.026470
-0.000774
-0.031692
-0.064677
-0.097288
-0.126592
-0.149966
-0.165784
-0.173526
-0.173968
-0.168588
-0.159118
-0.147204
-0.134203
-0.121111
-0.108579
-0.096981
-0.086487
-0.077137
-0.068894
-0.061679
-0.055397
-0.049947
-0.045234
-0.041166
-0.037662
-0.034648
-0.032059
-0.029839
-0.027935
-0.026305
-0.024911
-0.023720
-0.022705
-0.021841
-0.021108
-0.020487
-0.019965
-0.019527
-0.019163
-0.018863
-0.018618
-0.018422
-0.018268
-0.018151
-0.018066
-0.018010
-0.017979
-0.017969
-0.017979
-0.018005
-0.018046
-0.018100
-0.018165
-0.018241
-0.018325
-0.018418
-0.018517
-0.018623
-0.018733
-0.018849
-0.018969
-0.019092
-0.019219
-0.019349
-0.019481
-0.019616
-0.019752
-0.019891
-0.020031
-0.020173
-0.020315
-0.020459
-0.020604
-0.020751
-0.020897
-0.021045
-0.021194
-0.021344
-0.021494
-0.021645
-0.021798
-0.021952
-0.022107
-0.022264
-0.022424
-0.022586
-0.022753
-0.022924
-0.023103
-0.023291
-0.023492
-0.023707
-0.023929
-0.024116
0.100263
0.097308
0.089114
0.075613
0.056655
0.032140
0.002234
-0.032274
-0.069579
-0.106703
-0.139776
-0.165426
-0.181780
-0.188373
-0.186558
-0.178401
-0.166113
-0.151661
-0.136571
-0.121886
-0.108228
-0.095896
-0.084975
-0.075422
-0.067132
-0.059970
-0.053800
-0.048494
-0.043936
-0.040021
-0.036663
-0.033782
-0.031312
-0.029196
-0.027384
-0.025832
-0.024506
-0.023372
-0.022406
-0.021584
-0.020886
-0.020296
-0.019799
-0.019384
-0.019039
-0.018755
-0.018524
-0.018340
-0.018196
-0.018088
-0.018012
-0.017962
-0.017937
-0.017932
-0.017946
-0.017976
-0.018021
-0.018078
-0.018146
-0.018224
-0.018310
-0.018404
-0.018505
-0.018612
-0.018724
-0.018841
-0.018961
-0.019086
-0.019213
-0.019344
-0.019477
-0.019612
-0.019749
-0.019888
-0.020028
-0.020170
-0.020313
-0.020457
-0.020603
-0.020749
-0.020896
-0.021044
-0.021192
-0.021342
-0.021492
-0.021643
-0.021795
-0.021949
-0.022103
-0.022259
-0.022417
-0.022578
-0.022741
-0.022908
-0.023080
-0.023256
-0.023438
-0.023621
-0.023796
-0.023965
0.114525
0.111556
0.103146
0.088995
0.068637
0.041572
0.007570
-0.032805
-0.077521
-0.122720
-0.162415
-0.191743
-0.208466
-0.212623
-0.206684
-0.193748
-0.176797
-0.158275
-0.139924
-0.122817
-0.107487
-0.094097
-0.082584
-0.072772
-0.064447
-0.057392
-0.051410
-0.046331
-0.042011
-0.038331
-0.035190
-0.032508
-0.030214
-0.028253
-0.026574
-0.025137
-0.023909
-0.022860
-0.021965
-0.021204
-0.020559
-0.020013
-0.019555
-0.019171
-0.018854
-0.018594
-0.018384
-0.018218
-0.018090
-0.017995
-0.017930
-0.017891
-0.017874
-0.017877
-0.017898
-0.017934
-0.017983
-0.018045
-0.018117
-0.018198
-0.018288
-0.018384
-0.018488
-0.018596
-0.018710
-0.018829
-0.018951
-0.019076
-0.019205
-0.019336
-0.019470
-0.019606
-0.019744
-0.019883
-0.020024
-0.020166
-0.020310
-0.020454
-0.020600
-0.020746
-0.020893
-0.021041
-0.021190
-0.021339
-0.021489
-0.021640
-0.021792
-0.021944
-0.022098
-0.022252
-0.022409
-0.022566
-0.022726
-0.022888
-0.023052
-0.023217
-0.023383
-0.023544
-0.023695
-0.023851
0.134111
0.131146
0.122628
0.107952
0.086146
0.055988
0.016390
-0.032779
-0.089440
-0.148693
-0.199409
-0.233917
-0.249913
-0.249058
-0.235932
-0.215290
-0.191214
-0.166741
-0.143813
-0.123438
-0.105948
-0.091260
-0.079076
-0.069026
-0.060740
-0.053891
-0.048205
-0.043458
-0.039475
-0.036115
-0.033268
-0.030851
-0.028791
-0.027031
-0.025525
-0.024238
-0.023137
-0.022196
-0.021394
-0.020712
-0.020133
-0.019645
-0.019236
-0.018895
-0.018613
-0.018384
-0.018201
-0.018058
-0.017950
-0.017873
-0.017823
-0.017797
-0.017791
-0.017804
-0.017834
-0.017877
-0.017934
-0.018001
-0.018078
-0.018164
-0.018258
-0.018358
-0.018464
-0.018576
-0.018692
-0.018812
-0.018936
-0.019064
-0.019194
-0.019326
-0.019461
-0.019598
-0.019737
-0.019877
-0.020019
-0.020161
-0.020305
-0.020450
-0.020596
-0.020743
-0.020890
-0.021038
-0.021187
-0.021336
-0.021486
-0.021636
-0.021787
-0.021939
-0.022091
-0.022244
-0.022398
-0.022553
-0.022709
-0.022865
-0.023022
-0.023178
-0.023331
-0.023478
-0.023615
-0.023764
0.159010
0.156185
0.147940
0.133301
0.110581
0.077367
0.030880
-0.030868
-0.106619
-0.191635
-0.260577
-0.301071
-0.312798
-0.301887
-0.276525
-0.243845
-0.209308
-0.176553
-0.147574
-0.123105
-0.103070
-0.086972
-0.074161
-0.063994
-0.055901
-0.049417
-0.044173
-0.039889
-0.036353
-0.033407
-0.030937
-0.028849
-0.027074
-0.025560
-0.024265
-0.023157
-0.022208
-0.021397
-0.020706
-0.020118
-0.019620
-0.019200
-0.018850
-0.018559
-0.018322
-0.018130
-0.017979
-0.017864
-0.017780
-0.017724
-0.017692
-0.017682
-0.017690
-0.017716
-0.017756
-0.017809
-0.017873
-0.017948
-0.018031
-0.018123
-0.018221
-0.018326
-0.018436
-0.018550
-0.018670
-0.018793
-0.018919
-0.019048
-0.019180
-0.019314
-0.019451
-0.019589
-0.019728
-0.019869
-0.020012
-0.020155
-0.020300
-0.020445
-0.020591
-0.020738
-0.020886
-0.021034
-0.021183
-0.021332
-0.021481
-0.021631
-0.021782
-0.021933
-0.022084
-0.022235
-0.022387
-0.022539
-0.022691
-0.022842
-0.022993
-0.023141
-0.023285
-0.023423
-0.023552
-0.023695
0.188962
0.186527
0.179268
0.165839
0.143705
0.108738
0.055097
-0.023733
-0.130832
-0.267718
-0.366048
-0.409086
-0.407229
-0.376904
-0.331263
-0.280276
-0.230826
-0.186946
-0.150323
-0.121021
-0.098223
-0.080780
-0.067542
-0.057502
-0.049845
-0.043943
-0.039328
-0.035659
-0.032694
-0.030267
-0.028250
-0.026551
-0.025109
-0.023879
-0.022825
-0.021921
-0.021147
-0.020484
-0.019918
-0.019437
-0.019030
-0.018689
-0.018406
-0.018173
-0.017985
-0.017836
-0.017722
-0.017639
-0.017583
-0.017551
-0.017540
-0.017549
-0.017573
-0.017612
-0.017665
-0.017729
-0.017802
-0.017885
-0.017976
-0.018074
-0.018178
-0.018288
-0.018402
-0.018521
-0.018644
-0.018770
-0.018898
-0.019030
-0.019164
-0.019300
-0.019438
-0.019577
-0.019718
-0.019861
-0.020004
-0.020148
-0.020294
-0.020440
-0.020586
-0.020734
-0.020881
-0.021030
-0.021178
-0.021327
-0.021477
-0.021626
-0.021776
-0.021926
-0.022076
-0.022226
-0.022376
-0.022525
-0.022673
-0.022821
-0.022966
-0.023108
-0.023246
-0.023377
-0.023500
-0.023640
0.223258
0.221559
0.216319
0.205975
0.187300
0.154254
0.096339
-0.002863
-0.164801
-0.414748
-0.552228
-0.578981
-0.544582
-0.480003
-0.402801
-0.325246
-0.255290
-0.196956
-0.151047
-0.116341
-0.090786
-0.072274
-0.058977
-0.049436
-0.042547
-0.037502
-0.033732
-0.030847
-0.028590
-0.026777
-0.025279
-0.024020
-0.022950
-0.022033
-0.021244
-0.020564
-0.019980
-0.019478
-0.019049
-0.018685
-0.018378
-0.018122
-0.017912
-0.017743
-0.017609
-0.017508
-0.017435
-0.017387
-0.017362
-0.017357
-0.017370
-0.017399
-0.017441
-0.017496
-0.017563
-0.017638
-0.017723
-0.017815
-0.017914
-0.018019
-0.018130
-0.018245
-0.018364
-0.018488
-0.018614
-0.018743
-0.018875
-0.019010
-0.019146
-0.019284
-0.019424
-0.019565
-0.019707
-0.019851
-0.019995
-0.020140
-0.020286
-0.020433
-0.020580
-0.020728
-0.020876
-0.021025
-0.021174
-0.021323
-0.021472
-0.021621
-0.021770
-0.021919
-0.022068
-0.022217
-0.022365
-0.022512
-0.022657
-0.022801
-0.022942
-0.023079
-0.023212
-0.023339
-0.023458
-0.023596
0.260558
0.259974
0.257937
0.253052
0.242115
0.218175
0.166263
0.053745
-0.203556
-0.709225
-0.851295
-0.814087
-0.721528
-0.607361
-0.488592
-0.377314
-0.281756
-0.205761
-0.149004
-0.108464
-0.080340
-0.061212
-0.048375
-0.039812
-0.034088
-0.030209
-0.027515
-0.025603
-0.024176
-0.023045
-0.022117
-0.021333
-0.020660
-0.020075
-0.019566
-0.019122
-0.018737
-0.018404
-0.018120
-0.017879
-0.017678
-0.017513
-0.017381
-0.017279
-0.017203
-0.017152
-0.017123
-0.017114
-0.017122
-0.017146
-0.017185
-0.017235
-0.017297
-0.017370
-0.017451
-0.017540
-0.017636
-0.017738
-0.017846
-0.017959
-0.018077
-0.018198
-0.018323
-0.018451
-0.018582
-0.018715
-0.018850
-0.018987
-0.019126
-0.019266
-0.019408
-0.019551
-0.019695
-0.019840
-0.019985
-0.020132
-0.020279
-0.020426
-0.020574
-0.020722
-0.020871
-0.021020
-0.021169
-0.021318
-0.021467
-0.021616
-0.021765
-0.021913
-0.022061
-0.022208
-0.022355
-0.022500
-0.022643
-0.022784
-0.022922
-0.023056
-0.023185
-0.023309
-0.023425
-0.023561
0.298843
0.299660
0.301769
0.304458
0.305802
0.300796
0.276202
0.193462
-0.113058
-1.174457
-1.176400
-1.038029
-0.876995
-0.719532
-0.566405
-0.425826
-0.306168
-0.212174
-0.143799
-0.097135
-0.066752
-0.047624
-0.035887
-0.028843
-0.024708
-0.022301
-0.020968
-0.020162
-0.019616
-0.019208
-0.018872
-0.018577
-0.018310
-0.018064
-0.017838
-0.017633
-0.017450
-0.017290
-0.017152
-0.017037
-0.016944
-0.016873
-0.016821
-0.016789
-0.016774
-0.016776
-0.016793
-0.016824
-0.016867
-0.016922
-0.016987
-0.017061
-0.017144
-0.017234
-0.017331
-0.017434
-0.017542
-0.017656
-0.017773
-0.017895
-0.018020
-0.018148
-0.018278
-0.018412
-0.018547
-0.018684
-0.018823
-0.018963
-0.019105
-0.019248
-0.019391
-0.019536
-0.019682
-0.019828
-0.019975
-0.020122
-0.020270
-0.020419
-0.020567
-0.020716
-0.020865
-0.021014
-0.021164
-0.021313
-0.021462
-0.021611
-0.021759
-0.021907
-0.022055
-0.022201
-0.022346
-0.022489
-0.022631
-0.022770
-0.022905
-0.023037
-0.023164
-0.023285
-0.023400
-0.023534
0.335586
0.337845
0.344291
0.355198
0.370838
0.390978
0.413543
0.429104
0.482761
-0.345848
-1.123861
-1.071322
-0.889887
-0.744080
-0.594892
-0.449774
-0.319794
-0.213640
-0.135426
-0.083165
-0.050915
-0.032262
-0.022139
-0.017053
-0.014938
-0.014418
-0.014486
-0.014777
-0.015115
-0.015421
-0.015667
-0.015848
-0.015975
-0.016057
-0.016107
-0.016136
-0.016151
-0.016160
-0.016168
-0.016178
-0.016193
-0.016215
-0.016245
-0.016283
-0.016330
-0.016386
-0.016450
-0.016521
-0.016601
-0.016687
-0.016780
-0.016878
-0.016983
-0.017092
-0.017205
-0.017323
-0.017444
-0.017569
-0.017697
-0.017827
-0.017960
-0.018095
-0.018232
-0.018370
-0.018510
-0.018651
-0.018794
-0.018938
-0.019082
-0.019228
-0.019374
-0.019521
-0.019668
-0.019816
-0.019964
-0.020113
-0.020262
-0.020411
-0.020560
-0.020710
-0.020860
-0.021009
-0.021159
-0.021308
-0.021457
-0.021606
-0.021755
-0.021902
-0.022049
-0.022195
-0.022339
-0.022481
-0.022621
-0.022759
-0.022893
-0.023023
-0.023148
-0.023268
-0.023381
-0.023515
0.368191
0.371617
0.381559
0.399049
0.426036
0.465900
0.524894
0.615110
0.746946
0.807657
0.000000
-0.935161
-0.799000
-0.693553
-0.571952
-0.445613
-0.322246
-0.212723
-0.127981
-0.070666
-0.036006
-0.017298
-0.008591
-0.006094
-0.006155
-0.007157
-0.008463
-0.009755
-0.010897
-0.011852
-0.012625
-0.013242
-0.013729
-0.014114
-0.014421
-0.014668
-0.014871
-0.015041
-0.015188
-0.015319
-0.015440
-0.015553
-0.015663
-0.015771
-0.015879
-0.015988
-0.016099
-0.016212
-0.016328
-0.016446
-0.016567
-0.016691
-0.016817
-0.016945
-0.017076
-0.017208
-0.017343
-0.017480
-0.017618
-0.017757
-0.017898
-0.018040
-0.018183
-0.018327
-0.018472
-0.018618
-0.018764
-0.018911
-0.019059
-0.019207
-0.019355
-0.019504
-0.019653
-0.019803
-0.019953
-0.020103
-0.020253
-0.020403
-0.020553
-0.020704
-0.020854
-0.021004
-0.021154
-0.021304
-0.021453
-0.021602
-0.021750
-0.021898
-0.022045
-0.022190
-0.022334
-0.022475
-0.022615
-0.022751
-0.022884
-0.023013
-0.023137
-0.023256
-0.023370
-0.023503
0.394564
0.398643
0.410473
0.431266
0.463205
0.509639
0.575103
0.663634
0.767285
0.868368
0.803950
0.000000
-0.700958
-0.602915
-0.518078
-0.423365
-0.319899
-0.214764
-0.126776
-0.064528
-0.025608
-0.006957
0.000015
0.001761
0.000847
-0.001132
-0.003341
-0.005402
-0.007180
-0.008658
-0.009865
-0.010844
-0.011639
-0.012287
-0.012820
-0.013263
-0.013636
-0.013955
-0.014232
-0.014477
-0.014697
-0.014898
-0.015085
-0.015261
-0.015429
-0.015591
-0.015748
-0.015902
-0.016053
-0.016203
-0.016352
-0.016501
-0.016649
-0.016796
-0.016944
-0.017092
-0.017240
-0.017388
-0.017537
-0.017686
-0.017835
-0.017984
-0.018133
-0.018283
-0.018433
-0.018583
-0.018734
-0.018884
-0.019035
-0.019186
-0.019337
-0.019488
-0.019639
-0.019790
-0.019941
-0.020092
-0.020244
-0.020395
-0.020546
-0.020697
-0.020848
-0.020999
-0.021149
-0.021300
-0.021449
-0.021599
-0.021747
-0.021895
-0.022041
-0.022187
-0.022330
-0.022472
-0.022611
-0.022747
-0.022880
-0.023008
-0.023132
-0.023251
-0.023364
-0.023497
0.413537
0.417696
0.429670
0.450390
0.481354
0.524331
0.580255
0.647980
0.722870
0.761635
0.739533
0.638277
0.000000
-0.526779
-0.450643
-0.398659
-0.322727
-0.230634
-0.143095
-0.076294
-0.034974
-0.010527
0.001484
0.005482
0.005189
0.003081
0.000493
-0.001983
-0.004147
-0.005968
-0.007477
-0.008725
-0.009757
-0.010617
-0.011339
-0.011949
-0.012471
-0.012922
-0.013317
-0.013666
-0.013978
-0.014262
-0.014521
-0.014761
-0.014986
-0.015199
-0.015401
-0.015594
-0.015781
-0.015962
-0.016139
-0.016312
-0.016481
-0.016648
-0.016813
-0.016976
-0.017137
-0.017297
-0.017456
-0.017614
-0.017771
-0.017928
-0.018084
-0.018239
-0.018394
-0.018549
-0.018703
-0.018857
-0.019011
-0.019165
-0.019318
-0.019471
-0.019624
-0.019777
-0.019930
-0.020082
-0.020235
-0.020387
-0.020539
-0.020691
-0.020843
-0.020994
-0.021145
-0.021296
-0.021446
-0.021596
-0.021745
-0.021893
-0.022040
-0.022185
-0.022329
-0.022471
-0.022610
-0.022746
-0.022879
-0.023008
-0.023132
-0.023251
-0.023364
-0.023498
0.424975
0.428744
0.439481
0.457656
0.483882
0.518635
0.561851
0.609941
0.650283
0.656297
0.608428
0.537022
0.386624
0.000000
-0.413297
-0.375952
-0.339508
-0.279756
-0.198432
-0.122524
-0.063908
-0.025519
-0.004549
0.004315
0.006283
0.005074
0.002775
0.000332
-0.001909
-0.003858
-0.005519
-0.006927
-0.008120
-0.009134
-0.010001
-0.010747
-0.011394
-0.011959
-0.012456
-0.012898
-0.013294
-0.013652
-0.013979
-0.014279
-0.014558
-0.014818
-0.015063
-0.015294
-0.015515
-0.015726
-0.015929
-0.016126
-0.016316
-0.016502
-0.016683
-0.016861
-0.017035
-0.017207
-0.017376
-0.017543
-0.017708
-0.017872
-0.018034
-0.018196
-0.018356
-0.018515
-0.018673
-0.018830
-0.018987
-0.019143
-0.019299
-0.019455
-0.019610
-0.019764
-0.019918
-0.020072
-0.020226
-0.020379
-0.020532
-0.020685
-0.020837
-0.020990
-0.021141
-0.021293
-0.021443
-0.021594
-0.021743
-0.021892
-0.022039
-0.022185
-0.022330
-0.022472
-0.022612
-0.022749
-0.022883
-0.023012
-0.023137
-0.023257
-0.023371
-0.023505
0.429589
0.432675
0.441386
0.455867
0.476139
0.501623
0.530184
0.556777
0.570817
0.554687
0.490079
0.365828
0.236226
-0.169121
-0.405158
-0.345643
-0.378472
-0.338594
-0.249907
-0.161473
-0.090339
-0.041905
-0.013860
-0.000392
0.004402
0.004845
0.003474
0.001527
-0.000474
-0.002335
-0.003999
-0.005462
-0.006739
-0.007851
-0.008822
-0.009671
-0.010417
-0.011075
-0.011660
-0.012183
-0.012653
-0.013079
-0.013466
-0.013822
-0.014150
-0.014454
-0.014739
-0.015006
-0.015259
-0.015498
-0.015727
-0.015946
-0.016157
-0.016360
-0.016558
-0.016749
-0.016936
-0.017119
-0.017298
-0.017474
-0.017647
-0.017818
-0.017986
-0.018153
-0.018318
-0.018481
-0.018643
-0.018804
-0.018964
-0.019123
-0.019281
-0.019439
-0.019595
-0.019752
-0.019907
-0.020062
-0.020217
-0.020372
-0.020526
-0.020679
-0.020833
-0.020985
-0.021138
-0.021290
-0.021441
-0.021592
-0.021742
-0.021892
-0.022040
-0.022187
-0.022333
-0.022476
-0.022617
-0.022756
-0.022891
-0.023021
-0.023148
-0.023268
-0.023383
-0.023518
0.428623
0.430924
0.437323
0.447637
0.461343
0.477155
0.492359
0.501936
0.497413
0.466008
0.390681
0.247393
-0.014682
-0.574469
-0.464672
-0.365993
-0.371549
-0.322978
-0.244345
-0.163685
-0.096925
-0.049925
-0.021246
-0.005997
0.000865
0.003077
0.002968
0.001823
0.000289
-0.001324
-0.002875
-0.004309
-0.005606
-0.006767
-0.007803
-0.008725
-0.009547
-0.010280
-0.010938
-0.011529
-0.012063
-0.012547
-0.012989
-0.013394
-0.013767
-0.014112
-0.014434
-0.014734
-0.015016
-0.015282
-0.015535
-0.015775
-0.016005
-0.016225
-0.016438
-0.016643
-0.016842
-0.017035
-0.017224
-0.017408
-0.017589
-0.017766
-0.017940
-0.018112
-0.018282
-0.018449
-0.018615
-0.018779
-0.018942
-0.019103
-0.019264
-0.019423
-0.019582
-0.019739
-0.019897
-0.020053
-0.020209
-0.020365
-0.020519
-0.020674
-0.020828
-0.020982
-0.021135
-0.021288
-0.021440
-0.021592
-0.021743
-0.021893
-0.022042
-0.022190
-0.022337
-0.022482
-0.022625
-0.022765
-0.022902
-0.023035
-0.023164
-0.023286
-0.023403
-0.023539
0.423499
0.424994
0.429055
0.435307
0.442940
0.450401
0.454991
0.452386
0.436123
0.397158
0.323338
0.197988
-0.001988
-0.268408
-0.319554
-0.306340
-0.287688
-0.249043
-0.193649
-0.135313
-0.084988
-0.047737
-0.023473
-0.009320
-0.001946
0.001276
0.002121
0.001691
0.000636
-0.000682
-0.002068
-0.003421
-0.004695
-0.005869
-0.006939
-0.007909
-0.008785
-0.009577
-0.010292
-0.010940
-0.011528
-0.012063
-0.012552
-0.013001
-0.013414
-0.013796
-0.014150
-0.014481
-0.014790
-0.015081
-0.015355
-0.015615
-0.015862
-0.016098
-0.016325
-0.016543
-0.016753
-0.016956
-0.017154
-0.017346
-0.017534
-0.017717
-0.017897
-0.018074
-0.018248
-0.018419
-0.018588
-0.018755
-0.018921
-0.019085
-0.019247
-0.019409
-0.019569
-0.019728
-0.019887
-0.020044
-0.020201
-0.020358
-0.020514
-0.020669
-0.020824
-0.020978
-0.021132
-0.021286
-0.021439
-0.021592
-0.021744
-0.021895
-0.022046
-0.022195
-0.022344
-0.022491
-0.022636
-0.022778
-0.022918
-0.023054
-0.023185
-0.023310
-0.023429
-0.023566
0.415680
0.416439
0.418407
0.421126
0.423708
0.424636
0.421546
0.411028
0.388469
0.348038
0.282928
0.186339
0.055996
-0.091779
-0.167816
-0.191919
-0.188925
-0.168874
-0.136694
-0.100452
-0.067160
-0.040753
-0.022117
-0.010219
-0.003344
0.000129
0.001447
0.001479
0.000790
-0.000269
-0.001488
-0.002745
-0.003973
-0.005136
-0.006219
-0.007217
-0.008131
-0.008965
-0.009726
-0.010419
-0.011052
-0.011630
-0.012160
-0.012646
-0.013094
-0.013508
-0.013892
-0.014249
-0.014583
-0.014896
-0.015190
-0.015468
-0.015731
-0.015982
-0.016221
-0.016450
-0.016671
-0.016883
-0.017089
-0.017288
-0.017482
-0.017672
-0.017857
-0.018038
-0.018216
-0.018391
-0.018563
-0.018733
-0.018901
-0.019067
-0.019232
-0.019395
-0.019557
-0.019718
-0.019877
-0.020036
-0.020194
-0.020352
-0.020509
-0.020665
-0.020820
-0.020976
-0.021130
-0.021285
-0.021439
-0.021592
-0.021745
-0.021898
-0.022050
-0.022201
-0.022352
-0.022501
-0.022649
-0.022795
-0.022938
-0.023077
-0.023212
-0.023341
-0.023462
-0.023602
0.406496
0.406641
0.406882
0.406767
0.405464
0.401648
0.393417
0.378252
0.353066
0.314421
0.259104
0.185437
0.096259
0.003077
-0.062198
-0.097063
-0.108937
-0.104675
-0.089728
-0.069700
-0.049377
-0.031868
-0.018497
-0.009266
-0.003491
-0.000297
0.001111
0.001359
0.000893
0.000020
-0.001062
-0.002229
-0.003405
-0.004546
-0.005629
-0.006641
-0.007579
-0.008444
-0.009239
-0.009968
-0.010637
-0.011251
-0.011814
-0.012333
-0.012811
-0.013253
-0.013662
-0.014043
-0.014398
-0.014730
-0.015042
-0.015335
-0.015613
-0.015876
-0.016127
-0.016367
-0.016596
-0.016817
-0.017030
-0.017236
-0.017436
-0.017631
-0.017820
-0.018006
-0.018187
-0.018365
-0.018541
-0.018713
-0.018884
-0.019052
-0.019218
-0.019383
-0.019546
-0.019708
-0.019869
-0.020029
-0.020188
-0.020346
-0.020504
-0.020661
-0.020817
-0.020973
-0.021129
-0.021284
-0.021439
-0.021593
-0.021747
-0.021901
-0.022055
-0.022208
-0.022361
-0.022513
-0.022664
-0.022813
-0.022961
-0.023105
-0.023245
-0.023379
-0.023504
-0.023647
0.397060
0.396724
0.395629
0.393377
0.389260
0.382208
0.370772
0.353179
0.327465
0.291754
0.244788
0.186868
0.121281
0.055533
0.002763
-0.032452
-0.051627
-0.057316
-0.053628
-0.044487
-0.033316
-0.022585
-0.013680
-0.007078
-0.002674
-0.000087
0.001133
0.001393
0.001019
0.000252
-0.000737
-0.001833
-0.002963
-0.004079
-0.005154
-0.006172
-0.007125
-0.008011
-0.008831
-0.009587
-0.010284
-0.010926
-0.011517
-0.012062
-0.012566
-0.013031
-0.013462
-0.013863
-0.014236
-0.014585
-0.014912
-0.015219
-0.015509
-0.015784
-0.016045
-0.016293
-0.016531
-0.016759
-0.016979
-0.017190
-0.017395
-0.017594
-0.017788
-0.017977
-0.018162
-0.018343
-0.018521
-0.018696
-0.018868
-0.019038
-0.019206
-0.019372
-0.019537
-0.019700
-0.019862
-0.020023
-0.020182
-0.020342
-0.020500
-0.020657
-0.020815
-0.020971
-0.021127
-0.021283
-0.021439
-0.021594
-0.021750
-0.021905
-0.022060
-0.022215
-0.022370
-0.022525
-0.022680
-0.022834
-0.022987
-0.023138
-0.023285
-0.023425
-0.023557
-0.023703
0.388246
0.387548
0.385466
0.381680
0.375628
0.366483
0.353185
0.334523
0.309293
0.276552
0.236009
0.188584
0.137035
0.086224
0.042601
0.009750
-0.011921
-0.023188
-0.026482
-0.024475
-0.019638
-0.013917
-0.008589
-0.004315
-0.001293
0.000553
0.001427
0.001564
0.001181
0.000454
-0.000482
-0.001531
-0.002625
-0.003718
-0.004782
-0.005800
-0.006761
-0.007660
-0.008498
-0.009275
-0.009994
-0.010658
-0.011271
-0.011837
-0.012360
-0.012845
-0.013294
-0.013711
-0.014100
-0.014462
-0.014802
-0.015121
-0.015422
-0.015706
-0.015975
-0.016231
-0.016476
-0.016710
-0.016935
-0.017151
-0.017361
-0.017564
-0.017761
-0.017953
-0.018140
-0.018324
-0.018504
-0.018681
-0.018855
-0.019026
-0.019195
-0.019363
-0.019529
-0.019693
-0.019855
-0.020017
-0.020178
-0.020337
-0.020496
-0.020655
-0.020812
-0.020970
-0.021127
-0.021283
-0.021440
-0.021596
-0.021752
-0.021909
-0.022065
-0.022223
-0.022380
-0.022538
-0.022697
-0.022857
-0.023016
-0.023175
-0.023331
-0.023481
-0.023621
-0.023773
0.380709
0.379740
0.376946
0.372100
0.364772
0.354343
0.340044
0.321057
0.296665
0.266452
0.230580
0.190091
0.147167
0.105079
0.067586
0.037284
0.015082
0.000895
-0.006601
-0.009184
-0.008645
-0.006512
-0.003909
-0.001536
0.000261
0.001378
0.001858
0.001810
0.001360
0.000628
-0.000287
-0.001307
-0.002375
-0.003450
-0.004504
-0.005518
-0.006482
-0.007390
-0.008240
-0.009031
-0.009765
-0.010445
-0.011075
-0.011657
-0.012197
-0.012696
-0.013159
-0.013589
-0.013990
-0.014364
-0.014713
-0.015042
-0.015351
-0.015642
-0.015918
-0.016181
-0.016431
-0.016670
-0.016899
-0.017120
-0.017332
-0.017538
-0.017738
-0.017933
-0.018123
-0.018308
-0.018490
-0.018668
-0.018844
-0.019017
-0.019187
-0.019355
-0.019522
-0.019687
-0.019850
-0.020013
-0.020174
-0.020334
-0.020494
-0.020652
-0.020811
-0.020968
-0.021126
-0.021283
-0.021440
-0.021597
-0.021755
-0.021912
-0.022070
-0.022229
-0.022389
-0.022551
-0.022714
-0.022879
-0.023045
-0.023214
-0.023382
-0.023547
-0.023701
-0.023861
0.374939
0.373738
0.370421
0.364856
0.356721
0.345544
0.330758
0.311798
0.288235
0.259945
0.227287
0.191274
0.153657
0.116804
0.083251
0.054956
0.032893
0.017241
0.007289
0.001840
-0.000435
-0.000759
-0.000107
0.000837
0.001661
0.002164
0.002286
0.002049
0.001515
0.000758
-0.000153
-0.001157
-0.002207
-0.003267
-0.004311
-0.005320
-0.006284
-0.007196
-0.008053
-0.008853
-0.009597
-0.010289
-0.010930
-0.011524
-0.012075
-0.012585
-0.013058
-0.013498
-0.013908
-0.014290
-0.014647
-0.014982
-0.015297
-0.015594
-0.015875
-0.016142
-0.016397
-0.016639
-0.016872
-0.017096
-0.017311
-0.017520
-0.017722
-0.017918
-0.018109
-0.018296
-0.018480
-0.018659
-0.018836
-0.019009
-0.019181
-0.019350
-0.019517
-0.019682
-0.019847
-0.020009
-0.020171
-0.020332
-0.020492
-0.020651
-0.020809
-0.020968
-0.021125
-0.021283
-0.021441
-0.021599
-0.021757
-0.021915
-0.022075
-0.022235
-0.022397
-0.022561
-0.022728
-0.022899
-0.023073
-0.023253
-0.023438
-0.023624
-0.023802
-0.023975
0.371359
0.369832
0.366079
0.360034
0.351419
0.339843
0.324857
0.306039
0.283119
0.256115
0.225467
0.192131
0.157595
0.123740
0.092525
0.065548
0.043752
0.027402
0.016092
0.008966
0.004983
0.003122
0.002514
0.002507
0.002664
0.002731
0.002590
0.002208
0.001606
0.000825
-0.000086
-0.001079
-0.002116
-0.003164
-0.004198
-0.005202
-0.006164
-0.007076
-0.007935
-0.008740
-0.009490
-0.010189
-0.010837
-0.011438
-0.011995
-0.012512
-0.012992
-0.013438
-0.013853
-0.014241
-0.014603
-0.014943
-0.015262
-0.015563
-0.015847
-0.016117
-0.016374
-0.016619
-0.016854
-0.017080
-0.017297
-0.017507
-0.017710
-0.017908
-0.018101
-0.018289
-0.018473
-0.018653
-0.018830
-0.019004
-0.019176
-0.019346
-0.019514
-0.019680
-0.019844
-0.020007
-0.020169
-0.020330
-0.020490
-0.020650
-0.020809
-0.020967
-0.021125
-0.021283
-0.021441
-0.021599
-0.021758
-0.021917
-0.022078
-0.022239
-0.022403
-0.022569
-0.022739
-0.022914
-0.023096
-0.023288
-0.023491
-0.023710
-0.023935
-0.024127
0.370580
0.368130
0.363965
0.357641
0.348801
0.337069
0.322044
0.303361
0.280810
0.254463
0.224784
0.192694
0.159556
0.127048
0.096895
0.070538
0.048876
0.032222
0.020295
0.012386
0.007592
0.004991
0.003771
0.003299
0.003128
0.002981
0.002711
0.002261
0.001628
0.000839
-0.000069
-0.001054
-0.002081
-0.003120
-0.004148
-0.005148
-0.006107
-0.007019
-0.007879
-0.008685
-0.009438
-0.010139
-0.010791
-0.011395
-0.011956
-0.012476
-0.012959
-0.013408
-0.013826
-0.014216
-0.014581
-0.014923
-0.015244
-0.015547
-0.015833
-0.016104
-0.016363
-0.016609
-0.016845
-0.017072
-0.017290
-0.017501
-0.017705
-0.017903
-0.018096
-0.018285
-0.018469
-0.018650
-0.018827
-0.019002
-0.019174
-0.019344
-0.019512
-0.019678
-0.019843
-0.020006
-0.020168
-0.020329
-0.020490
-0.020649
-0.020808
-0.020967
-0.021125
-0.021283
-0.021441
-0.021600
-0.021759
-0.021918
-0.022079
-0.022242
-0.022406
-0.022574
-0.022745
-0.022923
-0.023110
-0.023309
-0.023530
-0.023789
-0.024126
-0.024333
