# vtk DataFile Version 3.0
Vector Field
ASCII
DATASET RECTILINEAR_GRID
DIMENSIONS 100 26 1
X_COORDINATES 100 double
0.050000 0.150000 0.250000 0.350000 0.450000 0.550000 0.650000 0.750000 0.850000 0.950000 1.050000 1.150000 1.250000 1.350000 1.450000 1.550000 1.650000 1.750000 1.850000 1.950000 2.050000 2.150000 2.250000 2.350000 2.450000 2.550000 2.650000 2.750000 2.850000 2.950000 3.050000 3.150000 3.250000 3.350000 3.450000 3.550000 3.650000 3.750000 3.850000 3.950000 4.050000 4.150000 4.250000 4.350000 4.450000 4.550000 4.650000 4.750000 4.850000 4.950000 5.050000 5.150000 5.250000 5.350000 5.450000 5.550000 5.650000 5.750000 5.850000 5.950000 6.050000 6.150000 6.250000 6.350000 6.450000 6.550000 6.650000 6.750000 6.850000 6.950000 7.050000 7.150000 7.250000 7.350000 7.450000 7.550000 7.650000 7.750000 7.850000 7.950000 8.050000 8.150000 8.250000 8.350000 8.450000 8.550000 8.650000 8.750000 8.850000 8.950000 9.050000 9.150000 9.250000 9.350000 9.450000 9.550000 9.650000 9.750000 9.850000 9.950000 
Y_COORDINATES 26 double
0.050000 0.150000 0.250000 0.350000 0.450000 0.550000 0.650000 0.750000 0.850000 0.950000 1.050000 1.150000 1.250000 1.350000 1.450000 1.550000 1.650000 1.750000 1.850000 1.950000 2.050000 2.150000 2.250000 2.350000 2.450000 2.550000 
Z_COORDINATES 1 double
0.0
POINT_DATA 2600
VECTORS Vektorfeld double
1.000763 -0.000763 0.0
1.004263 -0.002738 0.0
1.011869 -0.004868 0.0
1.023779 -0.007043 0.0
1.040003 -0.009181 0.0
1.060362 -0.011178 0.0
1.084433 -0.012892 0.0
1.111485 -0.014160 0.0
1.140475 -0.014830 0.0
1.170125 -0.014820 0.0
1.199120 -0.014175 0.0
1.226346 -0.013051 0.0
1.251056 -0.011659 0.0
1.272923 -0.010208 0.0
1.291990 -0.008859 0.0
1.308564 -0.007715 0.0
1.323085 -0.006806 0.0
1.335984 -0.006093 0.0
1.347547 -0.005469 0.0
1.357792 -0.004776 0.0
1.366401 -0.003833 0.0
1.372724 -0.002490 0.0
1.375895 -0.000681 0.0
1.374990 0.001586 0.0
1.369192 0.004213 0.0
1.357944 0.007034 0.0
1.341056 0.009854 0.0
1.318713 0.012488 0.0
1.291443 0.014782 0.0
1.260037 0.016624 0.0
1.225472 0.017940 0.0
1.188840 0.018692 0.0
1.151282 0.018865 0.0
1.113956 0.018462 0.0
1.077998 0.017496 0.0
1.044514 0.015988 0.0
1.014562 0.013964 0.0
0.989154 0.011444 0.0
0.969273 0.008437 0.0
0.955911 0.004926 0.0
0.950058 0.000928 0.0
0.952418 -0.003288 0.0
0.963121 -0.007416 0.0
0.981735 -0.011198 0.0
1.007255 -0.014322 0.0
1.038016 -0.016440 0.0
1.071691 -0.017235 0.0
1.105433 -0.016507 0.0
1.136198 -0.014258 0.0
1.161187 -0.010731 0.0
1.178333 -0.006414 0.0
1.186668 -0.001921 0.0
1.186247 0.002341 0.0
1.177698 0.006208 0.0
1.161953 0.009537 0.0
1.140172 0.012244 0.0
1.113620 0.014308 0.0
1.083562 0.015750 0.0
1.051194 0.016618 0.0
1.017609 0.016968 0.0
0.983787 0.016853 0.0
0.950618 0.016316 0.0
0.918908 0.015394 0.0
0.889387 0.014127 0.0
0.862689 0.012571 0.0
0.839311 0.010806 0.0
0.819573 0.008932 0.0
0.803583 0.007058 0.0
0.791240 0.005284 0.0
0.782270 0.003686 0.0
0.776278 0.002305 0.0
0.772821 0.001152 0.0
0.771440 0.000228 0.0
0.771649 -0.000437 0.0
0.772950 -0.000864 0.0
0.774948 -0.001134 0.0
0.777395 -0.001314 0.0
0.780162 -0.001453 0.0
0.783197 -0.001582 0.0
0.786493 -0.001715 0.0
0.790063 -0.001855 0.0
0.793915 -0.001998 0.0
0.798048 -0.002135 0.0
0.802439 -0.002256 0.0
0.807044 -0.002350 0.0
0.811803 -0.002409 0.0
0.816639 -0.002427 0.0
0.821467 -0.002401 0.0
0.826200 -0.002332 0.0
0.830754 -0.002222 0.0
0.835054 -0.002077 0.0
0.839033 -0.001903 0.0
0.842642 -0.001707 0.0
0.845845 -0.001496 0.0
0.848622 -0.001280 0.0
0.850969 -0.001067 0.0
0.852905 -0.000869 0.0
0.854481 -0.000706 0.0
0.855803 -0.000616 0.0
0.857228 -0.000808 0.0
1.001311 -0.002836 0.0
1.006211 -0.009066 0.0
1.015622 -0.015557 0.0
1.029504 -0.022145 0.0
1.047839 -0.028637 0.0
1.070492 -0.034735 0.0
1.097092 -0.040006 0.0
1.126920 -0.043926 0.0
1.158857 -0.045990 0.0
1.191448 -0.045901 0.0
1.223156 -0.043798 0.0
1.252715 -0.040212 0.0
1.279341 -0.035835 0.0
1.302764 -0.031322 0.0
1.323134 -0.027181 0.0
1.340889 -0.023721 0.0
1.356606 -0.021038 0.0
1.370856 -0.019010 0.0
1.384047 -0.017307 0.0
1.396291 -0.015428 0.0
1.407297 -0.012796 0.0
1.416349 -0.008903 0.0
1.422397 -0.003486 0.0
1.424267 0.003425 0.0
1.420958 0.011483 0.0
1.411833 0.020138 0.0
1.396696 0.028776 0.0
1.375783 0.036821 0.0
1.349697 0.043805 0.0
1.319316 0.049389 0.0
1.285693 0.053363 0.0
1.249978 0.055617 0.0
1.213357 0.056118 0.0
1.177014 0.054879 0.0
1.142101 0.051948 0.0
1.109729 0.047393 0.0
1.080949 0.041292 0.0
1.056738 0.033734 0.0
1.037959 0.024806 0.0
1.025275 0.014601 0.0
1.019088 0.003293 0.0
1.019759 -0.008684 0.0
1.027808 -0.020772 0.0
1.043586 -0.032234 0.0
1.066839 -0.042057 0.0
1.096466 -0.049094 0.0
1.130509 -0.052299 0.0
1.166300 -0.050977 0.0
1.200754 -0.045007 0.0
1.230774 -0.034992 0.0
1.253735 -0.022259 0.0
1.267864 -0.008541 0.0
1.272555 0.004691 0.0
1.268303 0.016660 0.0
1.256215 0.026917 0.0
1.237630 0.035231 0.0
1.213950 0.041554 0.0
1.186539 0.045973 0.0
1.156659 0.048642 0.0
1.125451 0.049739 0.0
1.093925 0.049430 0.0
1.062973 0.047860 0.0
1.033376 0.045157 0.0
1.005802 0.041458 0.0
0.980798 0.036941 0.0
0.958771 0.031841 0.0
0.939960 0.026446 0.0
0.924426 0.021069 0.0
0.912039 0.016002 0.0
0.902502 0.011476 0.0
0.895378 0.007632 0.0
0.890140 0.004521 0.0
0.886256 0.002125 0.0
0.883328 0.000386 0.0
0.881162 -0.000822 0.0
0.879654 -0.001666 0.0
0.878729 -0.002303 0.0
0.878354 -0.002855 0.0
0.878537 -0.003398 0.0
0.879313 -0.003971 0.0
0.880723 -0.004578 0.0
0.882799 -0.005203 0.0
0.885553 -0.005816 0.0
0.888966 -0.006379 0.0
0.892991 -0.006858 0.0
0.897552 -0.007221 0.0
0.902550 -0.007448 0.0
0.907870 -0.007528 0.0
0.913391 -0.007459 0.0
0.918992 -0.007250 0.0
0.924557 -0.006914 0.0
0.929982 -0.006470 0.0
0.935176 -0.005942 0.0
0.940066 -0.005353 0.0
0.944594 -0.004727 0.0
0.948716 -0.004090 0.0
0.952407 -0.003473 0.0
0.955650 -0.002920 0.0
0.958427 -0.002502 0.0
0.960544 -0.002464 0.0
1.001197 -0.005343 0.0
1.005912 -0.016174 0.0
1.015278 -0.027226 0.0
1.029368 -0.038447 0.0
1.048307 -0.049610 0.0
1.072142 -0.060251 0.0
1.100665 -0.069613 0.0
1.133207 -0.076689 0.0
1.168485 -0.080442 0.0
1.204562 -0.080118 0.0
1.239282 -0.076010 0.0
1.270971 -0.069248 0.0
1.298758 -0.061211 0.0
1.322505 -0.053116 0.0
1.342607 -0.045860 0.0
1.359783 -0.039974 0.0
1.374903 -0.035622 0.0
1.388821 -0.032593 0.0
1.402201 -0.030295 0.0
1.415318 -0.027801 0.0
1.427881 -0.023991 0.0
1.438962 -0.017842 0.0
1.447147 -0.008781 0.0
1.450919 0.003077 0.0
1.449023 0.017035 0.0
1.440689 0.032044 0.0
1.425723 0.046973 0.0
1.404463 0.060796 0.0
1.377667 0.072711 0.0
1.346362 0.082169 0.0
1.311721 0.088848 0.0
1.274965 0.092604 0.0
1.237300 0.093416 0.0
1.199889 0.091336 0.0
1.163825 0.086468 0.0
1.130126 0.078944 0.0
1.099726 0.068921 0.0
1.073466 0.056576 0.0
1.052101 0.042109 0.0
1.036349 0.025734 0.0
1.027004 0.007693 0.0
1.024964 -0.011716 0.0
1.031039 -0.031863 0.0
1.045605 -0.051487 0.0
1.068335 -0.068786 0.0
1.098139 -0.081796 0.0
1.133273 -0.088773 0.0
1.171429 -0.088449 0.0
1.209722 -0.080282 0.0
1.244770 -0.064786 0.0
1.273106 -0.043761 0.0
1.292029 -0.020091 0.0
1.300498 0.003079 0.0
1.299218 0.023804 0.0
1.289716 0.041363 0.0
1.273631 0.055455 0.0
1.252546 0.066094 0.0
1.227892 0.073498 0.0
1.200904 0.077983 0.0
1.172623 0.079887 0.0
1.143913 0.079519 0.0
1.115489 0.077149 0.0
1.087936 0.073019 0.0
1.061725 0.067381 0.0
1.037220 0.060527 0.0
1.014682 0.052821 0.0
0.994270 0.044689 0.0
0.976044 0.036586 0.0
0.959977 0.028938 0.0
0.945967 0.022087 0.0
0.933861 0.016252 0.0
0.923481 0.011518 0.0
0.914655 0.007838 0.0
0.907214 0.005040 0.0
0.901002 0.002902 0.0
0.895906 0.001214 0.0
0.891866 -0.000219 0.0
0.888854 -0.001551 0.0
0.886851 -0.002883 0.0
0.885854 -0.004266 0.0
0.885864 -0.005704 0.0
0.886874 -0.007163 0.0
0.888850 -0.008586 0.0
0.891733 -0.009905 0.0
0.895430 -0.011054 0.0
0.899824 -0.011979 0.0
0.904776 -0.012641 0.0
0.910139 -0.013019 0.0
0.915760 -0.013111 0.0
0.921495 -0.012933 0.0
0.927212 -0.012511 0.0
0.932791 -0.011878 0.0
0.938135 -0.011073 0.0
0.943162 -0.010139 0.0
0.947808 -0.009115 0.0
0.952025 -0.008042 0.0
0.955777 -0.006964 0.0
0.959031 -0.005927 0.0
0.961744 -0.004985 0.0
0.963805 -0.004157 0.0
1.001145 -0.007686 0.0
1.005730 -0.023131 0.0
1.014997 -0.038902 0.0
1.029223 -0.055087 0.0
1.048815 -0.071501 0.0
1.074174 -0.087554 0.0
1.105461 -0.102118 0.0
1.142215 -0.113479 0.0
1.183001 -0.119716 0.0
1.224922 -0.118842 0.0
1.264449 -0.111532 0.0
1.299172 -0.100138 0.0
1.328208 -0.087143 0.0
1.351776 -0.074500 0.0
1.370732 -0.063534 0.0
1.386260 -0.055003 0.0
1.399688 -0.049141 0.0
1.412336 -0.045642 0.0
1.425326 -0.043617 0.0
1.439301 -0.041571 0.0
1.454093 -0.037575 0.0
1.468497 -0.029743 0.0
1.480382 -0.016951 0.0
1.487314 0.000544 0.0
1.487390 0.021389 0.0
1.479598 0.043816 0.0
1.463788 0.065978 0.0
1.440548 0.086291 0.0
1.410969 0.103591 0.0
1.376411 0.117152 0.0
1.338310 0.126606 0.0
1.298075 0.131839 0.0
1.257019 0.132901 0.0
1.216347 0.129935 0.0
1.177151 0.123130 0.0
1.140423 0.112708 0.0
1.107066 0.098913 0.0
1.077905 0.082005 0.0
1.053711 0.062240 0.0
1.035249 0.039816 0.0
1.023330 0.014875 0.0
1.018752 -0.012281 0.0
1.022060 -0.040681 0.0
1.033283 -0.068459 0.0
1.051908 -0.093169 0.0
1.077124 -0.112432 0.0
1.108101 -0.124248 0.0
1.143925 -0.126954 0.0
1.183151 -0.119297 0.0
1.223259 -0.100927 0.0
1.260431 -0.073128 0.0
1.290072 -0.039286 0.0
1.308314 -0.004438 0.0
1.314177 0.026738 0.0
1.309382 0.052726 0.0
1.296328 0.073232 0.0
1.277261 0.088469 0.0
1.254109 0.098930 0.0
1.228425 0.105223 0.0
1.201405 0.107948 0.0
1.173932 0.107639 0.0
1.146643 0.104741 0.0
1.119988 0.099635 0.0
1.094281 0.092683 0.0
1.069744 0.084267 0.0
1.046534 0.074828 0.0
1.024772 0.064856 0.0
1.004556 0.054861 0.0
0.985965 0.045321 0.0
0.969056 0.036622 0.0
0.953859 0.029021 0.0
0.940366 0.022622 0.0
0.928539 0.017388 0.0
0.918308 0.013162 0.0
0.909586 0.009715 0.0
0.902287 0.006797 0.0
0.896343 0.004181 0.0
0.891715 0.001689 0.0
0.888393 -0.000797 0.0
0.886370 -0.003332 0.0
0.885634 -0.005911 0.0
0.886151 -0.008481 0.0
0.887860 -0.010953 0.0
0.890668 -0.013227 0.0
0.894443 -0.015205 0.0
0.899027 -0.016807 0.0
0.904244 -0.017982 0.0
0.909910 -0.018705 0.0
0.915844 -0.018980 0.0
0.921879 -0.018835 0.0
0.927865 -0.018312 0.0
0.933676 -0.017466 0.0
0.939205 -0.016358 0.0
0.944370 -0.015046 0.0
0.949108 -0.013591 0.0
0.953371 -0.012047 0.0
0.957123 -0.010464 0.0
0.960334 -0.008891 0.0
0.962971 -0.007371 0.0
0.964977 -0.005839 0.0
1.001074 -0.009905 0.0
1.005406 -0.029828 0.0
1.014298 -0.050363 0.0
1.028284 -0.071838 0.0
1.048185 -0.094244 0.0
1.075006 -0.116991 0.0
1.109640 -0.138602 0.0
1.152223 -0.156332 0.0
1.201574 -0.167001 0.0
1.252760 -0.164664 0.0
1.299047 -0.151525 0.0
1.336966 -0.132788 0.0
1.366156 -0.112719 0.0
1.387744 -0.094081 0.0
1.403382 -0.078546 0.0
1.414897 -0.067035 0.0
1.424201 -0.059841 0.0
1.433231 -0.056620 0.0
1.443825 -0.056222 0.0
1.457370 -0.056485 0.0
1.474211 -0.054294 0.0
1.493078 -0.046293 0.0
1.510925 -0.030132 0.0
1.523631 -0.005914 0.0
1.527797 0.023605 0.0
1.521862 0.055326 0.0
1.505777 0.086363 0.0
1.480533 0.114391 0.0
1.447730 0.137872 0.0
1.409192 0.155968 0.0
1.366720 0.168362 0.0
1.321970 0.175068 0.0
1.276417 0.176281 0.0
1.231360 0.172284 0.0
1.187947 0.163389 0.0
1.147210 0.149914 0.0
1.110088 0.132185 0.0
1.077442 0.110540 0.0
1.050023 0.085318 0.0
1.028411 0.056813 0.0
1.012921 0.025288 0.0
1.003553 -0.008748 0.0
1.000038 -0.044007 0.0
1.001903 -0.078220 0.0
1.008697 -0.108826 0.0
1.020522 -0.133816 0.0
1.038299 -0.151618 0.0
1.063290 -0.160399 0.0
1.096141 -0.157930 0.0
1.136027 -0.142288 0.0
1.180130 -0.113042 0.0
1.223510 -0.072393 0.0
1.259671 -0.025734 0.0
1.282877 0.018967 0.0
1.292068 0.056101 0.0
1.289845 0.085134 0.0
1.278956 0.106524 0.0
1.261844 0.121139 0.0
1.240549 0.129992 0.0
1.216682 0.134067 0.0
1.191452 0.134224 0.0
1.165723 0.131174 0.0
1.140079 0.125501 0.0
1.114897 0.117705 0.0
1.090422 0.108259 0.0
1.066821 0.097648 0.0
1.044235 0.086384 0.0
1.022803 0.074982 0.0
1.002668 0.063927 0.0
0.983968 0.053625 0.0
0.966820 0.044364 0.0
0.951301 0.036291 0.0
0.937440 0.029407 0.0
0.925230 0.023585 0.0
0.914633 0.018610 0.0
0.905610 0.014224 0.0
0.898131 0.010176 0.0
0.892188 0.006264 0.0
0.887787 0.002352 0.0
0.884935 -0.001608 0.0
0.883629 -0.005593 0.0
0.883832 -0.009519 0.0
0.885464 -0.013258 0.0
0.888399 -0.016666 0.0
0.892467 -0.019609 0.0
0.897462 -0.021982 0.0
0.903160 -0.023721 0.0
0.909333 -0.024804 0.0
0.915764 -0.025247 0.0
0.922259 -0.025098 0.0
0.928651 -0.024426 0.0
0.934801 -0.023312 0.0
0.940602 -0.021841 0.0
0.945970 -0.020096 0.0
0.950847 -0.018156 0.0
0.955191 -0.016089 0.0
0.958972 -0.013956 0.0
0.962170 -0.011808 0.0
0.964768 -0.009688 0.0
0.966734 -0.007494 0.0
1.000935 -0.011914 0.0
1.004735 -0.035952 0.0
1.012674 -0.061071 0.0
1.025564 -0.088006 0.0
1.044754 -0.117167 0.0
1.072138 -0.148272 0.0
1.109949 -0.179767 0.0
1.159778 -0.207579 0.0
1.222433 -0.227760 0.0
1.287932 -0.220589 0.0
1.341730 -0.195686 0.0
1.380193 -0.165008 0.0
1.405506 -0.135001 0.0
1.420797 -0.108679 0.0
1.428824 -0.087612 0.0
1.432036 -0.072696 0.0
1.432802 -0.064250 0.0
1.433608 -0.062047 0.0
1.437171 -0.064951 0.0
1.446137 -0.070267 0.0
1.462137 -0.073353 0.0
1.484666 -0.068631 0.0
1.510373 -0.051348 0.0
1.533004 -0.020035 0.0
1.545804 0.020760 0.0
1.545392 0.064517 0.0
1.531895 0.106755 0.0
1.506949 0.144190 0.0
1.472868 0.174958 0.0
1.432030 0.198258 0.0
1.386606 0.213968 0.0
1.338482 0.222336 0.0
1.289271 0.223777 0.0
1.240364 0.218752 0.0
1.192990 0.207709 0.0
1.148263 0.191059 0.0
1.107225 0.169200 0.0
1.070826 0.142570 0.0
1.039792 0.111740 0.0
1.014306 0.077488 0.0
0.993627 0.040780 0.0
0.976093 0.002662 0.0
0.959974 -0.035784 0.0
0.944566 -0.072900 0.0
0.930692 -0.107068 0.0
0.920940 -0.137647 0.0
0.919135 -0.163758 0.0
0.928700 -0.182816 0.0
0.951260 -0.190925 0.0
0.986372 -0.184291 0.0
1.031849 -0.160618 0.0
1.083902 -0.120250 0.0
1.136934 -0.067071 0.0
1.183161 -0.009130 0.0
1.215692 0.042475 0.0
1.233545 0.083131 0.0
1.239520 0.113441 0.0
1.236227 0.134627 0.0
1.225942 0.148085 0.0
1.210595 0.155188 0.0
1.191764 0.157162 0.0
1.170688 0.155041 0.0
1.148298 0.149669 0.0
1.125271 0.141746 0.0
1.102088 0.131876 0.0
1.079101 0.120619 0.0
1.056587 0.108512 0.0
1.034793 0.096080 0.0
1.013944 0.083812 0.0
0.994248 0.072134 0.0
0.975881 0.061370 0.0
0.958972 0.051713 0.0
0.943604 0.043213 0.0
0.929817 0.035777 0.0
0.917629 0.029202 0.0
0.907060 0.023224 0.0
0.898141 0.017574 0.0
0.890923 0.012028 0.0
0.885464 0.006448 0.0
0.881816 0.000795 0.0
0.880001 -0.004876 0.0
0.879994 -0.010431 0.0
0.881702 -0.015686 0.0
0.884964 -0.020435 0.0
0.889554 -0.024497 0.0
0.895201 -0.027736 0.0
0.901616 -0.030080 0.0
0.908516 -0.031518 0.0
0.915639 -0.032088 0.0
0.922760 -0.031873 0.0
0.929690 -0.030975 0.0
0.936286 -0.029510 0.0
0.942436 -0.027595 0.0
0.948064 -0.025340 0.0
0.953121 -0.022845 0.0
0.957573 -0.020196 0.0
0.961405 -0.017463 0.0
0.964608 -0.014702 0.0
0.967179 -0.011963 0.0
0.969102 -0.009109 0.0
1.000691 -0.013540 0.0
1.003520 -0.040956 0.0
1.009581 -0.070067 0.0
1.019895 -0.102214 0.0
1.036324 -0.138578 0.0
1.061867 -0.179787 0.0
1.100891 -0.225087 0.0
1.158136 -0.269333 0.0
1.241657 -0.312183 0.0
1.327420 -0.287427 0.0
1.383225 -0.238451 0.0
1.412457 -0.189937 0.0
1.424807 -0.147736 0.0
1.426402 -0.112830 0.0
1.420646 -0.085732 0.0
1.409941 -0.067082 0.0
1.396422 -0.057112 0.0
1.382443 -0.056012 0.0
1.371279 -0.063385 0.0
1.367268 -0.076790 0.0
1.374365 -0.089926 0.0
1.394325 -0.094547 0.0
1.425667 -0.082480 0.0
1.462125 -0.047992 0.0
1.491872 0.006171 0.0
1.505603 0.065786 0.0
1.502327 0.122259 0.0
1.484747 0.171211 0.0
1.456060 0.210706 0.0
1.419155 0.240254 0.0
1.376434 0.260117 0.0
1.329869 0.270876 0.0
1.281120 0.273197 0.0
1.231639 0.267720 0.0
1.182744 0.255010 0.0
1.135683 0.235546 0.0
1.091671 0.209764 0.0
1.051855 0.178220 0.0
1.017031 0.141949 0.0
0.986908 0.102889 0.0
0.959275 0.063692 0.0
0.930107 0.026452 0.0
0.895377 -0.008725 0.0
0.854870 -0.044042 0.0
0.814406 -0.081588 0.0
0.782737 -0.121706 0.0
0.766592 -0.161751 0.0
0.768233 -0.196029 0.0
0.786418 -0.218455 0.0
0.818718 -0.224173 0.0
0.862709 -0.210204 0.0
0.915941 -0.175949 0.0
0.975337 -0.123799 0.0
1.036344 -0.059635 0.0
1.090948 0.005844 0.0
1.132067 0.060790 0.0
1.159098 0.102775 0.0
1.174384 0.133300 0.0
1.180048 0.154033 0.0
1.178008 0.166628 0.0
1.169963 0.172599 0.0
1.157380 0.173263 0.0
1.141486 0.169730 0.0
1.123276 0.162922 0.0
1.103543 0.153617 0.0
1.082915 0.142493 0.0
1.061902 0.130164 0.0
1.040926 0.117197 0.0
1.020351 0.104119 0.0
1.000483 0.091393 0.0
0.981569 0.079393 0.0
0.963800 0.068368 0.0
0.947312 0.058415 0.0
0.932206 0.049469 0.0
0.918569 0.041334 0.0
0.906503 0.033728 0.0
0.896133 0.026358 0.0
0.887609 0.018987 0.0
0.881079 0.011478 0.0
0.876670 0.003823 0.0
0.874454 -0.003872 0.0
0.874426 -0.011398 0.0
0.876474 -0.018475 0.0
0.880375 -0.024809 0.0
0.885814 -0.030153 0.0
0.892429 -0.034342 0.0
0.899844 -0.037305 0.0
0.907708 -0.039057 0.0
0.915714 -0.039678 0.0
0.923605 -0.039295 0.0
0.931183 -0.038061 0.0
0.938299 -0.036134 0.0
0.944849 -0.033671 0.0
0.950769 -0.030812 0.0
0.956021 -0.027681 0.0
0.960590 -0.024381 0.0
0.964475 -0.020994 0.0
0.967682 -0.017581 0.0
0.970223 -0.014196 0.0
0.972091 -0.010666 0.0
1.000314 -0.014545 0.0
1.001620 -0.044086 0.0
1.004585 -0.075964 0.0
1.010215 -0.112261 0.0
1.020567 -0.155312 0.0
1.039529 -0.207557 0.0
1.074098 -0.270910 0.0
1.134860 -0.341517 0.0
1.248902 -0.437562 0.0
1.355393 -0.354302 0.0
1.390196 -0.262186 0.0
1.388807 -0.194044 0.0
1.374656 -0.141828 0.0
1.354554 -0.100231 0.0
1.329945 -0.067967 0.0
1.301589 -0.045786 0.0
1.270050 -0.033350 0.0
1.235759 -0.031503 0.0
1.200942 -0.041913 0.0
1.171688 -0.064998 0.0
1.156009 -0.093136 0.0
1.160391 -0.115679 0.0
1.188152 -0.120452 0.0
1.236476 -0.094803 0.0
1.293217 -0.033505 0.0
1.338116 0.046831 0.0
1.361091 0.121515 0.0
1.365915 0.184711 0.0
1.356754 0.235053 0.0
1.336766 0.272799 0.0
1.308297 0.298762 0.0
1.273228 0.313864 0.0
1.233215 0.318971 0.0
1.189797 0.314845 0.0
1.144452 0.302125 0.0
1.098624 0.281320 0.0
1.053778 0.252848 0.0
1.011389 0.217340 0.0
0.972387 0.176657 0.0
0.935389 0.135301 0.0
0.894875 0.099427 0.0
0.843557 0.071204 0.0
0.780319 0.044491 0.0
0.714552 0.009015 0.0
0.661053 -0.040682 0.0
0.630227 -0.100116 0.0
0.622156 -0.159125 0.0
0.631059 -0.209200 0.0
0.652141 -0.244552 0.0
0.683060 -0.261297 0.0
0.722971 -0.256982 0.0
0.771401 -0.230833 0.0
0.827446 -0.184357 0.0
0.889186 -0.121822 0.0
0.952975 -0.050362 0.0
1.010924 0.017928 0.0
1.056422 0.073108 0.0
1.089294 0.114810 0.0
1.111217 0.144935 0.0
1.123723 0.165259 0.0
1.128302 0.177434 0.0
1.126366 0.182947 0.0
1.119214 0.183092 0.0
1.108003 0.178981 0.0
1.093733 0.171561 0.0
1.077259 0.161651 0.0
1.059301 0.149977 0.0
1.040468 0.137193 0.0
1.021267 0.123899 0.0
1.002118 0.110630 0.0
0.983356 0.097831 0.0
0.965240 0.085814 0.0
0.947976 0.074720 0.0
0.931745 0.064502 0.0
0.916738 0.054946 0.0
0.903183 0.045737 0.0
0.891354 0.036547 0.0
0.881553 0.027123 0.0
0.874073 0.017351 0.0
0.869148 0.007284 0.0
0.866909 -0.002879 0.0
0.867347 -0.012802 0.0
0.870278 -0.022050 0.0
0.875348 -0.030205 0.0
0.882100 -0.036949 0.0
0.890046 -0.042106 0.0
0.898720 -0.045631 0.0
0.907714 -0.047590 0.0
0.916692 -0.048128 0.0
0.925389 -0.047435 0.0
0.933612 -0.045721 0.0
0.941223 -0.043200 0.0
0.948136 -0.040069 0.0
0.954305 -0.036503 0.0
0.959712 -0.032650 0.0
0.964360 -0.028630 0.0
0.968265 -0.024535 0.0
0.971448 -0.020430 0.0
0.973934 -0.016374 0.0
0.975723 -0.012145 0.0
0.999811 -0.014670 0.0
0.999050 -0.044505 0.0
0.997667 -0.077126 0.0
0.996224 -0.115285 0.0
0.996186 -0.162603 0.0
1.001057 -0.224100 0.0
1.019059 -0.306938 0.0
1.068206 -0.415398 0.0
1.211822 -0.621339 0.0
1.314193 -0.379387 0.0
1.274597 -0.232308 0.0
1.213110 -0.161046 0.0
1.162962 -0.110527 0.0
1.119969 -0.068438 0.0
1.078751 -0.033933 0.0
1.034436 -0.007148 0.0
0.984083 0.009905 0.0
0.927866 0.015750 0.0
0.866886 0.006631 0.0
0.805431 -0.022832 0.0
0.758992 -0.073184 0.0
0.748135 -0.129155 0.0
0.779932 -0.166534 0.0
0.846076 -0.163190 0.0
0.932708 -0.108491 0.0
1.021269 -0.011643 0.0
1.090468 0.087815 0.0
1.134875 0.169180 0.0
1.161012 0.233608 0.0
1.172319 0.282923 0.0
1.170854 0.318573 0.0
1.158291 0.341685 0.0
1.136274 0.353180 0.0
1.106475 0.353852 0.0
1.070549 0.344390 0.0
1.030036 0.325397 0.0
0.986043 0.297610 0.0
0.938178 0.262832 0.0
0.882823 0.225523 0.0
0.813877 0.192379 0.0
0.729902 0.166838 0.0
0.642091 0.142923 0.0
0.570185 0.107917 0.0
0.528115 0.053425 0.0
0.514864 -0.018341 0.0
0.519378 -0.096145 0.0
0.532224 -0.167871 0.0
0.549673 -0.226806 0.0
0.571116 -0.269469 0.0
0.597303 -0.293486 0.0
0.629555 -0.296955 0.0
0.669112 -0.278846 0.0
0.716549 -0.239827 0.0
0.771368 -0.182912 0.0
0.831818 -0.113512 0.0
0.894337 -0.039391 0.0
0.951447 0.027818 0.0
0.997522 0.081154 0.0
1.032590 0.121600 0.0
1.057729 0.150949 0.0
1.074036 0.170859 0.0
1.082652 0.182843 0.0
1.084731 0.188270 0.0
1.081390 0.188356 0.0
1.073672 0.184173 0.0
1.062521 0.176664 0.0
1.048773 0.166671 0.0
1.033149 0.154957 0.0
1.016262 0.142224 0.0
0.998613 0.129103 0.0
0.980608 0.116125 0.0
0.962577 0.103667 0.0
0.944809 0.091899 0.0
0.927601 0.080761 0.0
0.911305 0.069989 0.0
0.896353 0.059200 0.0
0.883252 0.048014 0.0
0.872532 0.036177 0.0
0.864668 0.023641 0.0
0.860001 0.010586 0.0
0.858670 -0.002611 0.0
0.860548 -0.015387 0.0
0.865238 -0.027085 0.0
0.872156 -0.037158 0.0
0.880666 -0.045258 0.0
0.890167 -0.051243 0.0
0.900142 -0.055143 0.0
0.910178 -0.057108 0.0
0.919955 -0.057365 0.0
0.929242 -0.056181 0.0
0.937878 -0.053832 0.0
0.945759 -0.050582 0.0
0.952830 -0.046672 0.0
0.959069 -0.042308 0.0
0.964479 -0.037662 0.0
0.969082 -0.032869 0.0
0.972909 -0.028027 0.0
0.975995 -0.023206 0.0
0.978372 -0.018462 0.0
0.980042 -0.013516 0.0
0.999236 -0.013716 0.0
0.996095 -0.041557 0.0
0.989567 -0.072164 0.0
0.979292 -0.108530 0.0
0.964976 -0.155003 0.0
0.947042 -0.218637 0.0
0.928913 -0.312274 0.0
0.925506 -0.455803 0.0
1.022736 -0.821780 0.0
1.029274 -0.186783 0.0
0.854449 -0.099266 0.0
0.722394 -0.090394 0.0
0.653979 -0.062615 0.0
0.600827 -0.020205 0.0
0.532447 0.027431 0.0
0.445899 0.062351 0.0
0.357105 0.079552 0.0
0.280983 0.078441 0.0
0.230401 0.055501 0.0
0.215338 0.004815 0.0
0.236789 -0.075842 0.0
0.287597 -0.166448 0.0
0.361714 -0.235155 0.0
0.454225 -0.253223 0.0
0.558511 -0.209375 0.0
0.669423 -0.110232 0.0
0.773763 0.012867 0.0
0.856324 0.117160 0.0
0.917326 0.198490 0.0
0.961361 0.262699 0.0
0.989613 0.312010 0.0
1.002959 0.347464 0.0
1.002589 0.369788 0.0
0.989948 0.379685 0.0
0.966505 0.377925 0.0
0.933330 0.365549 0.0
0.890176 0.344606 0.0
0.834448 0.319429 0.0
0.762634 0.296094 0.0
0.676551 0.276837 0.0
0.588997 0.253908 0.0
0.518820 0.213839 0.0
0.477979 0.149748 0.0
0.465134 0.066508 0.0
0.470997 -0.024035 0.0
0.485997 -0.109966 0.0
0.503975 -0.184874 0.0
0.522329 -0.245607 0.0
0.540676 -0.290458 0.0
0.560103 -0.318113 0.0
0.582700 -0.327176 0.0
0.610905 -0.316388 0.0
0.646662 -0.285480 0.0
0.690717 -0.236132 0.0
0.742339 -0.172364 0.0
0.799430 -0.100148 0.0
0.858050 -0.027154 0.0
0.911397 0.036705 0.0
0.955145 0.087232 0.0
0.989473 0.125849 0.0
1.015012 0.154112 0.0
1.032532 0.173453 0.0
1.042909 0.185204 0.0
1.047076 0.190596 0.0
1.045971 0.190756 0.0
1.040492 0.186710 0.0
1.031468 0.179396 0.0
1.019638 0.169685 0.0
1.005636 0.158385 0.0
0.989993 0.146232 0.0
0.973155 0.133838 0.0
0.955516 0.121624 0.0
0.937480 0.109746 0.0
0.919529 0.098074 0.0
0.902270 0.086233 0.0
0.886443 0.073735 0.0
0.872864 0.060158 0.0
0.862316 0.045302 0.0
0.855411 0.029285 0.0
0.852477 0.012542 0.0
0.853487 -0.004245 0.0
0.858001 -0.020144 0.0
0.865263 -0.034280 0.0
0.874441 -0.046059 0.0
0.884773 -0.055198 0.0
0.895633 -0.061664 0.0
0.906541 -0.065606 0.0
0.917146 -0.067286 0.0
0.927206 -0.067024 0.0
0.936559 -0.065162 0.0
0.945107 -0.062036 0.0
0.952802 -0.057955 0.0
0.959625 -0.053193 0.0
0.965585 -0.047985 0.0
0.970709 -0.042519 0.0
0.975033 -0.036939 0.0
0.978600 -0.031350 0.0
0.981449 -0.025818 0.0
0.983619 -0.020397 0.0
0.985105 -0.014737 0.0
0.998696 -0.011648 0.0
0.993313 -0.035101 0.0
0.981882 -0.060661 0.0
0.962940 -0.090817 0.0
0.933778 -0.129239 0.0
0.889406 -0.182097 0.0
0.819966 -0.261245 0.0
0.707198 -0.390656 0.0
0.318535 -0.696566 0.0
-0.470901 0.238866 0.0
-0.470901 0.000000 0.0
-0.033686 -0.023727 0.0
-0.069535 -0.034977 0.0
-0.054943 -0.009283 0.0
-0.014533 0.044480 0.0
0.012505 0.104813 0.0
0.004187 0.134202 0.0
-0.021924 0.126023 0.0
-0.045457 0.082035 0.0
-0.054094 0.001980 0.0
-0.041270 -0.107283 0.0
-0.005103 -0.221981 0.0
0.053978 -0.312820 0.0
0.136029 -0.350121 0.0
0.237351 -0.318085 0.0
0.349866 -0.224951 0.0
0.469366 -0.096254 0.0
0.581805 0.031280 0.0
0.672731 0.132441 0.0
0.743896 0.213548 0.0
0.797483 0.279323 0.0
0.833726 0.330562 0.0
0.853208 0.367579 0.0
0.856826 0.390918 0.0
0.845356 0.401604 0.0
0.818759 0.401642 0.0
0.775616 0.394811 0.0
0.714429 0.386138 0.0
0.638354 0.377274 0.0
0.559599 0.360496 0.0
0.495663 0.321741 0.0
0.458332 0.253513 0.0
0.447604 0.161644 0.0
0.455924 0.059137 0.0
0.474587 -0.041188 0.0
0.496852 -0.130079 0.0
0.518634 -0.204521 0.0
0.537813 -0.263493 0.0
0.553719 -0.306824 0.0
0.567085 -0.334540 0.0
0.580026 -0.346287 0.0
0.595695 -0.341149 0.0
0.617408 -0.318190 0.0
0.647522 -0.277590 0.0
0.686628 -0.221634 0.0
0.733479 -0.154820 0.0
0.785449 -0.083072 0.0
0.838235 -0.013510 0.0
0.886044 0.045890 0.0
0.925754 0.093153 0.0
0.957450 0.129573 0.0
0.981502 0.156420 0.0
0.998453 0.174909 0.0
1.008968 0.186209 0.0
1.013780 0.191437 0.0
1.013637 0.191652 0.0
1.009257 0.187857 0.0
1.001303 0.181009 0.0
0.990355 0.172011 0.0
0.976924 0.161680 0.0
0.961478 0.150675 0.0
0.944504 0.139399 0.0
0.926596 0.127914 0.0
0.908520 0.115932 0.0
0.891243 0.102911 0.0
0.875869 0.088259 0.0
0.863497 0.071585 0.0
0.855032 0.052887 0.0
0.851020 0.032618 0.0
0.851547 0.011616 0.0
0.856182 -0.008965 0.0
0.864027 -0.027783 0.0
0.874019 -0.043895 0.0
0.885213 -0.056816 0.0
0.896867 -0.066427 0.0
0.908438 -0.072866 0.0
0.919556 -0.076430 0.0
0.929987 -0.077498 0.0
0.939594 -0.076478 0.0
0.948310 -0.073778 0.0
0.956117 -0.069777 0.0
0.963027 -0.064818 0.0
0.969072 -0.059198 0.0
0.974294 -0.053164 0.0
0.978742 -0.046913 0.0
0.982466 -0.040594 0.0
0.985515 -0.034310 0.0
0.987932 -0.028124 0.0
0.989753 -0.022082 0.0
0.990969 -0.015754 0.0
0.998311 -0.008655 0.0
0.991349 -0.025749 0.0
0.976520 -0.043753 0.0
0.951723 -0.063985 0.0
0.912904 -0.088088 0.0
0.852201 -0.118173 0.0
0.753089 -0.156617 0.0
0.576634 -0.206060 0.0
0.231083 -0.243854 0.0
0.000000 0.238866 0.0
-0.000000 -0.000000 0.0
0.000000 0.000000 0.0
-0.016023 -0.016406 0.0
-0.045829 -0.012256 0.0
-0.070840 0.032053 0.0
-0.097401 0.116763 0.0
-0.132836 0.166006 0.0
-0.172866 0.160359 0.0
-0.206098 0.104465 0.0
-0.221525 0.003614 0.0
-0.214166 -0.129101 0.0
-0.187357 -0.263139 0.0
-0.146555 -0.371545 0.0
-0.088925 -0.431076 0.0
-0.004559 -0.422818 0.0
0.102255 -0.339547 0.0
0.219636 -0.218538 0.0
0.343207 -0.082446 0.0
0.456746 0.041702 0.0
0.547818 0.142051 0.0
0.619212 0.225839 0.0
0.672079 0.294935 0.0
0.706475 0.349328 0.0
0.722494 0.389531 0.0
0.719904 0.417050 0.0
0.697924 0.434773 0.0
0.656269 0.446478 0.0
0.598464 0.453461 0.0
0.535267 0.449222 0.0
0.482478 0.420091 0.0
0.452132 0.356429 0.0
0.446045 0.262243 0.0
0.458411 0.151276 0.0
0.481968 0.037626 0.0
0.510260 -0.066632 0.0
0.538524 -0.155163 0.0
0.564005 -0.226700 0.0
0.584887 -0.281375 0.0
0.600179 -0.320140 0.0
0.609910 -0.344321 0.0
0.615458 -0.354995 0.0
0.619726 -0.352378 0.0
0.626755 -0.335704 0.0
0.640577 -0.304012 0.0
0.663794 -0.257535 0.0
0.696729 -0.198705 0.0
0.737595 -0.132024 0.0
0.783304 -0.063052 0.0
0.829240 0.001686 0.0
0.870643 0.056244 0.0
0.905453 0.099975 0.0
0.933542 0.133876 0.0
0.955077 0.158967 0.0
0.970415 0.176298 0.0
0.980027 0.186924 0.0
0.984444 0.191892 0.0
0.984205 0.192235 0.0
0.979829 0.188962 0.0
0.971801 0.183033 0.0
0.960598 0.175292 0.0
0.946743 0.166365 0.0
0.930892 0.156533 0.0
0.913924 0.145657 0.0
0.896975 0.133215 0.0
0.881380 0.118500 0.0
0.868510 0.100913 0.0
0.859541 0.080272 0.0
0.855233 0.056973 0.0
0.855800 0.031978 0.0
0.860894 0.006636 0.0
0.869562 -0.017288 0.0
0.880536 -0.038278 0.0
0.892685 -0.055540 0.0
0.905138 -0.068819 0.0
0.917285 -0.078224 0.0
0.928729 -0.084085 0.0
0.939243 -0.086845 0.0
0.948722 -0.086992 0.0
0.957143 -0.085011 0.0
0.964539 -0.081356 0.0
0.970972 -0.076439 0.0
0.976522 -0.070616 0.0
0.981270 -0.064192 0.0
0.985294 -0.057416 0.0
0.988668 -0.050482 0.0
0.991456 -0.043536 0.0
0.993712 -0.036673 0.0
0.995479 -0.029946 0.0
0.996791 -0.023393 0.0
0.997638 -0.016506 0.0
0.998160 -0.005126 0.0
0.990607 -0.014762 0.0
0.974636 -0.023940 0.0
0.948290 -0.032655 0.0
0.908077 -0.040386 0.0
0.848230 -0.045326 0.0
0.760233 -0.042354 0.0
0.633142 -0.016777 0.0
0.475800 0.073922 0.0
0.196636 0.177705 0.0
0.000000 0.000000 0.0
-0.000000 -0.000000 0.0
0.000000 0.000000 0.0
-0.000047 0.000764 0.0
-0.027057 0.070242 0.0
-0.089363 0.167440 0.0
-0.155614 0.217016 0.0
-0.210446 0.204210 0.0
-0.247820 0.131221 0.0
-0.260055 0.004520 0.0
-0.247278 -0.150142 0.0
-0.221412 -0.294772 0.0
-0.192710 -0.409416 0.0
-0.161672 -0.481872 0.0
-0.118793 -0.499266 0.0
-0.046175 -0.442530 0.0
0.053676 -0.332788 0.0
0.165908 -0.204000 0.0
0.282327 -0.066702 0.0
0.385688 0.056021 0.0
0.467409 0.158755 0.0
0.530004 0.246557 0.0
0.573494 0.319822 0.0
0.597291 0.379222 0.0
0.600755 0.426486 0.0
0.584082 0.463991 0.0
0.550498 0.492499 0.0
0.508739 0.507005 0.0
0.472161 0.495453 0.0
0.452459 0.446352 0.0
0.453313 0.359660 0.0
0.470994 0.247418 0.0
0.499621 0.125109 0.0
0.534027 0.005829 0.0
0.569410 -0.098510 0.0
0.602223 -0.184362 0.0
0.630554 -0.251312 0.0
0.653016 -0.300108 0.0
0.668675 -0.332358 0.0
0.677110 -0.350269 0.0
0.678708 -0.356193 0.0
0.675180 -0.351921 0.0
0.669925 -0.337936 0.0
0.667634 -0.313311 0.0
0.672894 -0.276713 0.0
0.688486 -0.228054 0.0
0.714490 -0.169545 0.0
0.748667 -0.105416 0.0
0.787535 -0.040754 0.0
0.826423 0.018394 0.0
0.861448 0.067991 0.0
0.891209 0.108010 0.0
0.915370 0.139136 0.0
0.933932 0.162230 0.0
0.947069 0.178242 0.0
0.955059 0.188168 0.0
0.958227 0.193030 0.0
0.956932 0.193839 0.0