# vtk DataFile Version 3.0
Vector Field
ASCII
DATASET RECTILINEAR_GRID
DIMENSIONS 100 26 1
X_COORDINATES 100 double
0.050000 0.150000 0.250000 0.350000 0.450000 0.550000 0.650000 0.750000 0.850000 0.950000 1.050000 1.150000 1.250000 1.350000 1.450000 1.550000 1.650000 1.750000 1.850000 1.950000 2.050000 2.150000 2.250000 2.350000 2.450000 2.550000 2.650000 2.750000 2.850000 2.950000 3.050000 3.150000 3.250000 3.350000 3.450000 3.550000 3.650000 3.750000 3.850000 3.950000 4.050000 4.150000 4.250000 4.350000 4.450000 4.550000 4.650000 4.750000 4.850000 4.950000 5.050000 5.150000 5.250000 5.350000 5.450000 5.550000 5.650000 5.750000 5.850000 5.950000 6.050000 6.150000 6.250000 6.350000 6.450000 6.550000 6.650000 6.750000 6.850000 6.950000 7.050000 7.150000 7.250000 7.350000 7.450000 7.550000 7.650000 7.750000 7.850000 7.950000 8.050000 8.150000 8.250000 8.350000 8.450000 8.550000 8.650000 8.750000 8.850000 8.950000 9.050000 9.150000 9.250000 9.350000 9.450000 9.550000 9.650000 9.750000 9.850000 9.950000 
Y_COORDINATES 26 double
0.050000 0.150000 0.250000 0.350000 0.450000 0.550000 0.650000 0.750000 0.850000 0.950000 1.050000 1.150000 1.250000 1.350000 1.450000 1.550000 1.650000 1.750000 1.850000 1.950000 2.050000 2.150000 2.250000 2.350000 2.450000 2.550000 
Z_COORDINATES 1 double
0.0
POINT_DATA 2600
VECTORS Vektorfeld double
0.997750 0.002250 0.0
0.993277 0.002223 0.0
0.990383 0.000671 0.0
0.991205 -0.001493 0.0
0.996549 -0.003851 0.0
1.006524 -0.006124 0.0
1.020693 -0.008046 0.0
1.038089 -0.009351 0.0
1.057249 -0.009809 0.0
1.076353 -0.009295 0.0
1.093502 -0.007854 0.0
1.107047 -0.005690 0.0
1.115836 -0.003098 0.0
1.119352 -0.000418 0.0
1.117735 0.002034 0.0
1.111515 0.004186 0.0
1.101395 0.005935 0.0
1.088262 0.007199 0.0
1.073132 0.007931 0.0
1.057071 0.008129 0.0
1.041104 0.007838 0.0
1.026110 0.007155 0.0
1.012723 0.006232 0.0
1.001215 0.005276 0.0
0.991400 0.004539 0.0
0.982569 0.004293 0.0
0.973510 0.004766 0.0
0.962662 0.006083 0.0
0.948358 0.008221 0.0
0.929121 0.011017 0.0
0.903887 0.014217 0.0
0.872140 0.017530 0.0
0.833939 0.020671 0.0
0.789878 0.023389 0.0
0.741016 0.025474 0.0
0.688779 0.026763 0.0
0.634881 0.027135 0.0
0.581237 0.026509 0.0
0.529879 0.024849 0.0
0.482843 0.022186 0.0
0.442044 0.018613 0.0
0.409233 0.014199 0.0
0.386165 0.008869 0.0
0.374558 0.002737 0.0
0.374236 -0.002415 0.0
0.381819 -0.005169 0.0
0.393160 -0.006172 0.0
0.405418 -0.006087 0.0
0.416892 -0.005388 0.0
0.426654 -0.004374 0.0
0.434256 -0.003228 0.0
0.439547 -0.002063 0.0
0.442519 -0.000909 0.0
0.442916 0.000512 0.0
0.439850 0.002553 0.0
0.432364 0.004933 0.0
0.420135 0.007296 0.0
0.403679 0.009159 0.0
0.384573 0.009947 0.0
0.365388 0.009237 0.0
0.349035 0.007116 0.0
0.337605 0.004314 0.0
0.331455 0.001837 0.0
0.329283 0.000335 0.0
0.329164 -0.000216 0.0
0.329782 -0.000402 0.0
0.330900 -0.000716 0.0
0.332824 -0.001208 0.0
0.335798 -0.001766 0.0
0.339774 -0.002209 0.0
0.344404 -0.002421 0.0
0.349314 -0.002488 0.0
0.354278 -0.002476 0.0
0.359138 -0.002384 0.0
0.363741 -0.002218 0.0
0.367956 -0.001997 0.0
0.371688 -0.001735 0.0
0.374870 -0.001447 0.0
0.377466 -0.001149 0.0
0.379472 -0.000857 0.0
0.380910 -0.000582 0.0
0.381830 -0.000337 0.0
0.382301 -0.000133 0.0
0.382417 0.000017 0.0
0.382249 0.000150 0.0
0.381831 0.000268 0.0
0.381200 0.000362 0.0
0.380409 0.000429 0.0
0.379509 0.000470 0.0
0.378548 0.000490 0.0
0.377564 0.000494 0.0
0.376582 0.000488 0.0
0.375621 0.000473 0.0
0.374697 0.000451 0.0
0.373830 0.000417 0.0
0.373055 0.000358 0.0
0.372451 0.000246 0.0
0.372186 0.000019 0.0
0.372444 -0.000277 0.0
0.373792 -0.001071 0.0
1.003046 0.001455 0.0
1.011872 -0.001334 0.0
1.025593 -0.006599 0.0
1.043546 -0.012999 0.0
1.065610 -0.019753 0.0
1.091612 -0.026199 0.0
1.121101 -0.031628 0.0
1.153212 -0.035276 0.0
1.186621 -0.036452 0.0
1.219609 -0.034744 0.0
1.250352 -0.030298 0.0
1.277313 -0.023752 0.0
1.299469 -0.015981 0.0
1.316301 -0.007882 0.0
1.327643 -0.000228 0.0
1.333799 0.006512 0.0
1.335532 0.011997 0.0
1.333827 0.015974 0.0
1.329802 0.018311 0.0
1.324604 0.019008 0.0
1.319330 0.018201 0.0
1.314936 0.016180 0.0
1.312131 0.013399 0.0
1.311258 0.010489 0.0
1.312170 0.008228 0.0
1.314150 0.007455 0.0
1.315913 0.008899 0.0
1.315752 0.012958 0.0
1.311840 0.019561 0.0
1.302563 0.028192 0.0
1.286779 0.038060 0.0
1.263939 0.048274 0.0
1.234095 0.057973 0.0
1.197840 0.066403 0.0
1.156217 0.072945 0.0
1.110627 0.077119 0.0
1.062736 0.078568 0.0
1.014398 0.077058 0.0
0.967564 0.072492 0.0
0.924199 0.064945 0.0
0.886185 0.054667 0.0
0.855123 0.042017 0.0
0.831770 0.027472 0.0
0.815334 0.012179 0.0
0.804975 -0.001175 0.0
0.801242 -0.010259 0.0
0.804179 -0.015358 0.0
0.812608 -0.017588 0.0
0.825120 -0.017872 0.0
0.840272 -0.016802 0.0
0.856532 -0.014663 0.0
0.872138 -0.011525 0.0
0.885077 -0.007357 0.0
0.893707 -0.002067 0.0
0.897554 0.004351 0.0
0.896670 0.011505 0.0
0.891129 0.018494 0.0
0.881374 0.024170 0.0
0.868023 0.027393 0.0
0.851513 0.027486 0.0
0.831940 0.024794 0.0
0.809280 0.020724 0.0
0.783912 0.016945 0.0
0.757044 0.014267 0.0
0.730811 0.012204 0.0
0.707805 0.009565 0.0
0.690303 0.005701 0.0
0.679691 0.001063 0.0
0.675769 -0.003090 0.0
0.676745 -0.005837 0.0
0.680726 -0.007404 0.0
0.686660 -0.008350 0.0
0.694060 -0.008979 0.0
0.702562 -0.009243 0.0
0.711751 -0.009152 0.0
0.721241 -0.008769 0.0
0.730688 -0.008141 0.0
0.739782 -0.007316 0.0
0.748260 -0.006355 0.0
0.755927 -0.005323 0.0
0.762658 -0.004285 0.0
0.768400 -0.003297 0.0
0.773164 -0.002408 0.0
0.776996 -0.001655 0.0
0.780016 -0.001030 0.0
0.782423 -0.000540 0.0
0.784417 -0.000193 0.0
0.786174 0.000020 0.0
0.787835 0.000118 0.0
0.789509 0.000129 0.0
0.791267 0.000082 0.0
0.793147 0.000002 0.0
0.795159 -0.000092 0.0
0.797290 -0.000191 0.0
0.799516 -0.000300 0.0
0.801813 -0.000447 0.0
0.804159 -0.000691 0.0
0.806502 -0.001123 0.0
0.808886 -0.001777 0.0
0.811450 -0.003482 0.0
1.001958 -0.003549 0.0
1.008968 -0.012166 0.0
1.021733 -0.022253 0.0
1.039696 -0.033260 0.0
1.062688 -0.044547 0.0
1.090573 -0.055293 0.0
1.122973 -0.064422 0.0
1.159009 -0.070628 0.0
1.197113 -0.072612 0.0
1.234987 -0.069446 0.0
1.270083 -0.061436 0.0
1.300395 -0.049887 0.0
1.324807 -0.036414 0.0
1.343013 -0.022487 0.0
1.355311 -0.009263 0.0
1.362348 0.002353 0.0
1.364995 0.011776 0.0
1.364283 0.018611 0.0
1.361323 0.022660 0.0
1.357268 0.023912 0.0
1.353271 0.022568 0.0
1.350416 0.019062 0.0
1.349643 0.014095 0.0
1.351635 0.008674 0.0
1.356664 0.004103 0.0
1.364375 0.001889 0.0
1.373660 0.003418 0.0
1.382751 0.009509 0.0
1.389576 0.020097 0.0
1.392248 0.034261 0.0
1.389403 0.050619 0.0
1.380303 0.067655 0.0
1.364794 0.083944 0.0
1.343217 0.098264 0.0
1.316290 0.109633 0.0
1.285013 0.117299 0.0
1.250581 0.120711 0.0
1.214316 0.119518 0.0
1.177597 0.113585 0.0
1.141778 0.103035 0.0
1.108074 0.088294 0.0
1.077381 0.070146 0.0
1.050133 0.049943 0.0
1.026468 0.029809 0.0
1.006347 0.011674 0.0
0.990264 -0.003293 0.0
0.979427 -0.014423 0.0
0.974514 -0.022039 0.0
0.975431 -0.026851 0.0
0.981787 -0.029331 0.0
0.992963 -0.029570 0.0
1.008080 -0.027341 0.0
1.025931 -0.022330 0.0
1.044813 -0.014606 0.0
1.062675 -0.004819 0.0
1.078046 0.006188 0.0
1.090169 0.017230 0.0
1.098340 0.027018 0.0
1.101822 0.034415 0.0
1.099928 0.038869 0.0
1.092219 0.040694 0.0
1.078856 0.040845 0.0
1.060836 0.040213 0.0
1.039790 0.038915 0.0
1.017346 0.036232 0.0
0.994458 0.031431 0.0
0.971152 0.024644 0.0
0.946941 0.016943 0.0
0.922169 0.009725 0.0
0.899021 0.003519 0.0
0.880299 -0.002020 0.0
0.867502 -0.006872 0.0
0.860212 -0.010567 0.0
0.857062 -0.013006 0.0
0.856888 -0.014404 0.0
0.858897 -0.015016 0.0
0.862488 -0.014933 0.0
0.867115 -0.014245 0.0
0.872288 -0.013077 0.0
0.877592 -0.011572 0.0
0.882692 -0.009868 0.0
0.887332 -0.008098 0.0
0.891350 -0.006387 0.0
0.894676 -0.004834 0.0
0.897333 -0.003529 0.0
0.899412 -0.002527 0.0
0.901059 -0.001847 0.0
0.902452 -0.001476 0.0
0.903779 -0.001374 0.0
0.905214 -0.001487 0.0
0.906904 -0.001749 0.0
0.908949 -0.002093 0.0
0.911399 -0.002460 0.0
0.914254 -0.002809 0.0
0.917465 -0.003119 0.0
0.920944 -0.003405 0.0
0.924574 -0.003709 0.0
0.928229 -0.004103 0.0
0.931782 -0.004733 0.0
0.934887 -0.006195 0.0
1.001583 -0.007091 0.0
1.007717 -0.021768 0.0
1.019655 -0.037354 0.0
1.037297 -0.053764 0.0
1.060797 -0.070535 0.0
1.090370 -0.086764 0.0
1.125997 -0.100977 0.0
1.166978 -0.111090 0.0
1.211527 -0.114804 0.0
1.256215 -0.109815 0.0
1.296927 -0.096875 0.0
1.330825 -0.078658 0.0
1.356778 -0.058007 0.0
1.374858 -0.037182 0.0
1.385799 -0.017806 0.0
1.390658 -0.000999 0.0
1.390643 0.012497 0.0
1.387018 0.022227 0.0
1.381088 0.027933 0.0
1.374208 0.029573 0.0
1.367751 0.027362 0.0
1.363061 0.021814 0.0
1.361403 0.013775 0.0
1.363894 0.004510 0.0
1.371208 -0.004075 0.0
1.383096 -0.009532 0.0
1.398108 -0.009459 0.0
1.413776 -0.002373 0.0
1.427295 0.011636 0.0
1.436325 0.031020 0.0
1.439440 0.053589 0.0
1.436118 0.077108 0.0
1.426521 0.099598 0.0
1.411243 0.119465 0.0
1.391094 0.135507 0.0
1.366954 0.146842 0.0
1.339701 0.152853 0.0
1.310183 0.153160 0.0
1.279200 0.147644 0.0
1.247494 0.136501 0.0
1.215712 0.120315 0.0
1.184389 0.100142 0.0
1.154008 0.077576 0.0
1.125204 0.054644 0.0
1.098932 0.033232 0.0
1.076049 0.014115 0.0
1.057372 -0.002317 0.0
1.043968 -0.015827 0.0
1.036585 -0.026597 0.0
1.035470 -0.034826 0.0
1.040579 -0.040359 0.0
1.051608 -0.042698 0.0
1.068025 -0.041241 0.0
1.089080 -0.035633 0.0
1.113609 -0.026183 0.0
1.139699 -0.013908 0.0
1.164954 -0.000053 0.0
1.187203 0.013881 0.0
1.204857 0.026417 0.0
1.216830 0.036788 0.0
1.222474 0.044841 0.0
1.221754 0.050782 0.0
1.215267 0.054783 0.0
1.203975 0.056683 0.0
1.188788 0.056094 0.0
1.170343 0.052903 0.0
1.149185 0.047635 0.0
1.126156 0.041192 0.0
1.102346 0.034058 0.0
1.078467 0.026213 0.0
1.054534 0.017941 0.0
1.030547 0.009951 0.0
1.007539 0.002908 0.0
0.987287 -0.003079 0.0
0.971065 -0.007936 0.0
0.959015 -0.011443 0.0
0.950480 -0.013560 0.0
0.944668 -0.014432 0.0
0.940882 -0.014276 0.0
0.938530 -0.013326 0.0
0.937112 -0.011795 0.0
0.936205 -0.009905 0.0
0.935486 -0.007879 0.0
0.934745 -0.005928 0.0
0.933887 -0.004235 0.0
0.932921 -0.002935 0.0
0.931935 -0.002102 0.0
0.931075 -0.001754 0.0
0.930509 -0.001857 0.0
0.930404 -0.002335 0.0
0.930893 -0.003081 0.0
0.932063 -0.003976 0.0
0.933939 -0.004904 0.0
0.936486 -0.005766 0.0
0.939608 -0.006495 0.0
0.943163 -0.007063 0.0
0.946973 -0.007490 0.0
0.950835 -0.007839 0.0
0.954513 -0.008229 0.0
0.957662 -0.008953 0.0
1.001398 -0.010073 0.0
1.006965 -0.030488 0.0
1.018161 -0.051768 0.0
1.035323 -0.074155 0.0
1.059118 -0.097439 0.0
1.090425 -0.120741 0.0
1.130006 -0.142208 0.0
1.177800 -0.158635 0.0
1.232249 -0.166258 0.0
1.287609 -0.158411 0.0
1.336237 -0.137619 0.0
1.374192 -0.109766 0.0
1.400987 -0.079647 0.0
1.417698 -0.050333 0.0
1.425848 -0.023746 0.0
1.427036 -0.001107 0.0
1.422779 0.016876 0.0
1.414533 0.029718 0.0
1.403818 0.037087 0.0
1.392231 0.038885 0.0
1.381419 0.035318 0.0
1.373031 0.026937 0.0
1.368689 0.014652 0.0
1.369994 -0.000163 0.0
1.378254 -0.014976 0.0
1.393751 -0.026016 0.0
1.414990 -0.029226 0.0
1.438511 -0.021794 0.0
1.459675 -0.003625 0.0
1.474591 0.022334 0.0
1.481466 0.052284 0.0
1.480191 0.083009 0.0
1.471571 0.111913 0.0
1.456847 0.137152 0.0
1.437305 0.157511 0.0
1.414070 0.172213 0.0
1.388029 0.180776 0.0
1.359843 0.182942 0.0
1.330000 0.178687 0.0
1.298881 0.168283 0.0
1.266824 0.152373 0.0
1.234203 0.132027 0.0
1.201548 0.108727 0.0
1.169664 0.084182 0.0
1.139661 0.059970 0.0
1.112767 0.037154 0.0
1.089945 0.016142 0.0
1.071897 -0.002834 0.0
1.059210 -0.019520 0.0
1.052179 -0.033757 0.0
1.050851 -0.045209 0.0
1.055241 -0.053267 0.0
1.065426 -0.057275 0.0
1.081572 -0.056799 0.0
1.103789 -0.051764 0.0
1.131759 -0.042388 0.0
1.164179 -0.029249 0.0
1.198327 -0.013321 0.0
1.230278 0.004014 0.0
1.256513 0.020982 0.0
1.275543 0.035973 0.0
1.287336 0.048577 0.0
1.292297 0.058513 0.0
1.291052 0.065489 0.0
1.284262 0.069266 0.0
1.272552 0.069887 0.0
1.256605 0.067757 0.0
1.237253 0.063452 0.0
1.215397 0.057463 0.0
1.191850 0.050235 0.0
1.167372 0.042329 0.0
1.142746 0.034177 0.0
1.118529 0.025909 0.0
1.094899 0.017804 0.0
1.071950 0.010351 0.0
1.050206 0.004064 0.0
1.030528 -0.000854 0.0
1.013558 -0.004358 0.0
0.999464 -0.006470 0.0
0.987960 -0.007276 0.0
0.978524 -0.006991 0.0
0.970637 -0.005914 0.0
0.963867 -0.004380 0.0
0.957909 -0.002726 0.0
0.952577 -0.001247 0.0
0.947802 -0.000181 0.0
0.943616 0.000317 0.0
0.940120 0.000184 0.0
0.937447 -0.000556 0.0
0.935723 -0.001805 0.0
0.935036 -0.003413 0.0
0.935421 -0.005199 0.0
0.936843 -0.006979 0.0
0.939195 -0.008590 0.0
0.942311 -0.009908 0.0
0.945972 -0.010866 0.0
0.949931 -0.011456 0.0
0.953921 -0.011724 0.0
0.957666 -0.011766 0.0
0.960878 -0.011775 0.0
1.001212 -0.012682 0.0
1.006099 -0.038333 0.0
1.016153 -0.065171 0.0
1.032106 -0.093867 0.0
1.055250 -0.124666 0.0
1.087457 -0.157026 0.0
1.130946 -0.188993 0.0
1.187272 -0.215970 0.0
1.256969 -0.233069 0.0
1.328709 -0.218700 0.0
1.386488 -0.183738 0.0
1.426437 -0.141550 0.0
1.451035 -0.099256 0.0
1.463567 -0.059968 0.0
1.466636 -0.025331 0.0
1.462259 0.003669 0.0
1.451993 0.026624 0.0
1.437275 0.042934 0.0
1.419749 0.052114 0.0
1.401241 0.053953 0.0
1.383684 0.048620 0.0
1.368996 0.036712 0.0
1.358991 0.019223 0.0
1.355513 -0.002563 0.0
1.360766 -0.026090 0.0
1.376336 -0.045969 0.0
1.401572 -0.055749 0.0
1.433061 -0.050282 0.0
1.464775 -0.028015 0.0
1.489522 0.007061 0.0
1.503059 0.047146 0.0
1.505387 0.087095 0.0
1.498236 0.123598 0.0
1.483716 0.154711 0.0
1.463763 0.179448 0.0
1.439889 0.197385 0.0
1.413159 0.208376 0.0
1.384260 0.212426 0.0
1.353616 0.209689 0.0
1.321500 0.200516 0.0
1.288160 0.185538 0.0
1.253939 0.165703 0.0
1.219400 0.142246 0.0
1.185401 0.116546 0.0
1.153080 0.089929 0.0
1.123659 0.063510 0.0
1.098089 0.038178 0.0
1.076652 0.014615 0.0
1.058951 -0.006582 0.0
1.044386 -0.025100 0.0
1.032699 -0.040852 0.0
1.024297 -0.053612 0.0
1.020327 -0.063144 0.0
1.022493 -0.069241 0.0
1.032660 -0.071705 0.0
1.052266 -0.070023 0.0
1.081696 -0.063464 0.0
1.119917 -0.051473 0.0
1.164288 -0.034155 0.0
1.210080 -0.012876 0.0
1.250898 0.009982 0.0
1.282265 0.031407 0.0
1.303707 0.049281 0.0
1.316333 0.063340 0.0
1.321142 0.073397 0.0
1.319068 0.079539 0.0
1.311027 0.082093 0.0
1.297960 0.081535 0.0
1.280811 0.078384 0.0
1.260491 0.073182 0.0
1.237868 0.066481 0.0
1.213752 0.058767 0.0
1.188829 0.050459 0.0
1.163696 0.042017 0.0
1.138923 0.033858 0.0
1.114988 0.026237 0.0
1.092206 0.019433 0.0
1.070783 0.013747 0.0
1.050885 0.009417 0.0
1.032685 0.006542 0.0
1.016294 0.005016 0.0
1.001679 0.004582 0.0
0.988694 0.004878 0.0
0.977169 0.005499 0.0
0.966975 0.006052 0.0
0.958068 0.006202 0.0
0.950469 0.005719 0.0
0.944249 0.004498 0.0
0.939494 0.002558 0.0
0.936273 0.000025 0.0
0.934613 -0.002896 0.0
0.934472 -0.005959 0.0
0.935733 -0.008902 0.0
0.938202 -0.011489 0.0
0.941619 -0.013541 0.0
0.945678 -0.014953 0.0
0.950050 -0.015700 0.0
0.954405 -0.015826 0.0
0.958429 -0.015434 0.0
0.961833 -0.014723 0.0
1.000940 -0.014834 0.0
1.004764 -0.044893 0.0
1.012802 -0.076704 0.0
1.026074 -0.111558 0.0
1.046474 -0.150518 0.0
1.077100 -0.194007 0.0
1.122494 -0.240895 0.0
1.187715 -0.285615 0.0
1.280878 -0.326284 0.0
1.375476 -0.291823 0.0
1.437072 -0.229990 0.0
1.469834 -0.168010 0.0
1.484706 -0.112266 0.0
1.488259 -0.063042 0.0
1.483602 -0.020669 0.0
1.471972 0.015015 0.0
1.454016 0.043499 0.0
1.430958 0.063834 0.0
1.404466 0.075234 0.0
1.376506 0.077299 0.0
1.349210 0.070127 0.0
1.324718 0.054385 0.0
1.304925 0.031349 0.0
1.291191 0.002524 0.0
1.285828 -0.031066 0.0
1.292249 -0.062984 0.0
1.312329 -0.084050 0.0
1.345204 -0.086345 0.0
1.386625 -0.065087 0.0
1.427618 -0.021607 0.0
1.457264 0.032631 0.0
1.471542 0.085003 0.0
1.473206 0.131178 0.0
1.465423 0.169433 0.0
1.450747 0.199355 0.0
1.430992 0.221106 0.0
1.407367 0.235011 0.0
1.380646 0.241410 0.0
1.351334 0.240660 0.0
1.319799 0.233195 0.0
1.286391 0.219607 0.0
1.251563 0.200683 0.0
1.215977 0.177392 0.0
1.180568 0.150808 0.0
1.146503 0.122052 0.0
1.114952 0.092358 0.0
1.086608 0.063245 0.0
1.061092 0.036501 0.0
1.036731 0.013595 0.0
1.011193 -0.005174 0.0
0.983223 -0.021120 0.0
0.954393 -0.036112 0.0
0.928874 -0.051156 0.0
0.911529 -0.066051 0.0
0.906277 -0.079811 0.0
0.915142 -0.090388 0.0
0.938118 -0.095504 0.0
0.973831 -0.093367 0.0
1.020172 -0.082973 0.0
1.074526 -0.064205 0.0
1.133357 -0.038338 0.0
1.190557 -0.008840 0.0
1.238493 0.020149 0.0
1.273561 0.044777 0.0
1.296802 0.063911 0.0
1.310005 0.077896 0.0
1.314635 0.087148 0.0
1.311998 0.092183 0.0
1.303301 0.093582 0.0
1.289653 0.091952 0.0
1.272080 0.087905 0.0
1.251520 0.082020 0.0
1.228809 0.074839 0.0
1.204700 0.066879 0.0
1.179864 0.058605 0.0
1.154872 0.050418 0.0
1.130194 0.042711 0.0
1.106233 0.035852 0.0
1.083323 0.030120 0.0
1.061709 0.025654 0.0
1.041542 0.022463 0.0
1.022900 0.020393 0.0
1.005815 0.019136 0.0
0.990306 0.018276 0.0
0.976409 0.017365 0.0
0.964197 0.016009 0.0
0.953779 0.013930 0.0
0.945282 0.011004 0.0
0.938818 0.007269 0.0
0.934453 0.002899 0.0
0.932175 -0.001832 0.0
0.931883 -0.006590 0.0
0.933372 -0.011021 0.0
0.936341 -0.014808 0.0
0.940420 -0.017718 0.0
0.945203 -0.019618 0.0
0.950279 -0.020482 0.0
0.955250 -0.020370 0.0
0.959754 -0.019418 0.0
0.963451 -0.017840 0.0
1.000537 -0.016311 0.0
1.002736 -0.049439 0.0
1.007502 -0.084963 0.0
1.015878 -0.124946 0.0
1.030021 -0.171673 0.0
1.054030 -0.227488 0.0
1.095284 -0.294061 0.0
1.165250 -0.367636 0.0
1.291566 -0.463741 0.0
1.408862 -0.366261 0.0
1.450107 -0.258392 0.0
1.454045 -0.176308 0.0
1.447035 -0.111831 0.0
1.436713 -0.056708 0.0
1.423019 -0.008653 0.0
1.404001 0.033647 0.0
1.378495 0.068329 0.0
1.346904 0.093653 0.0
1.310483 0.108328 0.0
1.271018 0.111631 0.0
1.230607 0.103502 0.0
1.191472 0.084636 0.0
1.155756 0.056607 0.0
1.124985 0.021771 0.0
1.099418 -0.019382 0.0
1.083209 -0.064880 0.0
1.084203 -0.103228 0.0
1.107157 -0.122996 0.0
1.151895 -0.114596 0.0
1.212287 -0.073482 0.0
1.273662 -0.006515 0.0
1.319865 0.063668 0.0
1.347618 0.123097 0.0
1.361858 0.171057 0.0
1.365931 0.208334 0.0
1.361907 0.235905 0.0
1.351132 0.254611 0.0
1.334566 0.265097 0.0
1.312970 0.267881 0.0
1.287021 0.263460 0.0
1.257382 0.252388 0.0
1.224787 0.235323 0.0
1.190103 0.213020 0.0
1.154371 0.186323 0.0
1.118704 0.156269 0.0
1.083934 0.124462 0.0
1.049884 0.093535 0.0
1.014696 0.066915 0.0
0.975263 0.046976 0.0
0.929622 0.032622 0.0
0.879604 0.019072 0.0
0.831079 0.001051 0.0
0.791960 -0.023681 0.0
0.769016 -0.053236 0.0
0.764405 -0.082764 0.0
0.775974 -0.107869 0.0
0.800548 -0.125573 0.0
0.835649 -0.134112 0.0
0.879634 -0.132554 0.0
0.931269 -0.120613 0.0
0.989224 -0.098714 0.0
1.051685 -0.068125 0.0
1.115255 -0.032073 0.0
1.173057 0.004128 0.0
1.218558 0.035819 0.0
1.250750 0.060593 0.0
1.271554 0.079018 0.0
1.282698 0.091806 0.0
1.285673 0.099682 0.0
1.281802 0.103370 0.0
1.272283 0.103579 0.0
1.258199 0.100991 0.0
1.240527 0.096249 0.0
1.220150 0.089955 0.0
1.197852 0.082663 0.0
1.174326 0.074879 0.0
1.150171 0.067082 0.0
1.125908 0.059706 0.0
1.101976 0.053108 0.0
1.078727 0.047529 0.0
1.056428 0.043053 0.0
1.035289 0.039584 0.0
1.015483 0.036836 0.0
0.997185 0.034383 0.0
0.980591 0.031749 0.0
0.965928 0.028501 0.0
0.953440 0.024344 0.0
0.943357 0.019171 0.0
0.935848 0.013075 0.0
0.930988 0.006319 0.0
0.928728 -0.000715 0.0
0.928886 -0.007574 0.0
0.931143 -0.013783 0.0
0.935069 -0.018941 0.0
0.940175 -0.022770 0.0
0.945960 -0.025134 0.0
0.951940 -0.026023 0.0
0.957670 -0.025531 0.0
0.962747 -0.023839 0.0
0.966759 -0.021127 0.0
0.999997 -0.016845 0.0
0.999988 -0.051094 0.0
1.000126 -0.088212 0.0
1.001025 -0.130973 0.0
1.004267 -0.183032 0.0
1.013602 -0.249473 0.0
1.037747 -0.337475 0.0
1.096026 -0.452468 0.0
1.252613 -0.661812 0.0
1.364538 -0.397412 0.0
1.328631 -0.232580 0.0
1.271907 -0.149333 0.0
1.232676 -0.092564 0.0
1.209508 -0.042483 0.0
1.191777 0.008547 0.0
1.170035 0.057207 0.0
1.141302 0.099008 0.0
1.104824 0.131044 0.0
1.060767 0.151415 0.0
1.009673 0.159102 0.0
0.952157 0.153958 0.0
0.888973 0.136498 0.0
0.822277 0.107156 0.0
0.757963 0.066306 0.0
0.705664 0.013949 0.0
0.675596 -0.051934 0.0
0.676628 -0.118200 0.0
0.710554 -0.164903 0.0
0.771569 -0.178442 0.0
0.853172 -0.151630 0.0
0.948827 -0.085397 0.0
1.042726 0.002447 0.0
1.116583 0.082708 0.0
1.168406 0.145383 0.0
1.204249 0.194093 0.0
1.227163 0.231257 0.0
1.238885 0.258312 0.0
1.240703 0.276146 0.0
1.233748 0.285382 0.0
1.219102 0.286555 0.0
1.197821 0.280213 0.0
1.170953 0.266962 0.0
1.139510 0.247508 0.0
1.104285 0.222792 0.0
1.065320 0.194431 0.0
1.021079 0.165312 0.0
0.968400 0.139413 0.0
0.904914 0.119712 0.0
0.833317 0.105208 0.0
0.762999 0.090348 0.0
0.705899 0.068466 0.0
0.670053 0.036028 0.0
0.656236 -0.005724 0.0
0.659410 -0.051423 0.0
0.673589 -0.094145 0.0
0.695080 -0.129546 0.0
0.722210 -0.155600 0.0
0.754472 -0.171448 0.0
0.791947 -0.176678 0.0
0.834909 -0.171087 0.0
0.883482 -0.154768 0.0
0.937322 -0.128373 0.0
0.995351 -0.093423 0.0
1.055523 -0.052496 0.0
1.113173 -0.010707 0.0
1.161535 0.026563 0.0
1.197578 0.056201 0.0
1.222460 0.078597 0.0
1.237706 0.094670 0.0
1.244681 0.105278 0.0
1.244626 0.111246 0.0
1.238679 0.113356 0.0
1.227883 0.112352 0.0
1.213186 0.108927 0.0
1.195448 0.103727 0.0
1.175434 0.097355 0.0
1.153821 0.090373 0.0
1.131202 0.083297 0.0
1.108083 0.076568 0.0
1.084895 0.070507 0.0
1.062006 0.065263 0.0
1.039746 0.060773 0.0
1.018448 0.056751 0.0
0.998466 0.052748 0.0
0.980197 0.048248 0.0
0.964062 0.042800 0.0
0.950472 0.036123 0.0
0.939771 0.028176 0.0
0.932183 0.019167 0.0
0.927765 0.009505 0.0
0.926392 -0.000269 0.0
0.927750 -0.009536 0.0
0.931356 -0.017684 0.0
0.936633 -0.024243 0.0
0.942988 -0.028929 0.0
0.949858 -0.031630 0.0
0.956730 -0.032380 0.0
0.963148 -0.031321 0.0
0.968701 -0.028679 0.0
0.972926 -0.024524 0.0
0.999373 -0.016216 0.0
0.996786 -0.049127 0.0
0.991379 -0.084911 0.0
0.982823 -0.126618 0.0
0.970897 -0.178702 0.0
0.956187 -0.248428 0.0
0.942459 -0.348938 0.0
0.945395 -0.502219 0.0
1.050732 -0.873984 0.0
1.058595 -0.196866 0.0
0.880604 -0.100177 0.0
0.749226 -0.082744 0.0
0.689461 -0.060157 0.0
0.668615 -0.030876 0.0
0.664088 0.019198 0.0
0.658911 0.073475 0.0
0.645592 0.124793 0.0
0.618777 0.168551 0.0
0.575310 0.201433 0.0
0.514340 0.221147 0.0
0.438098 0.225670 0.0
0.354050 0.212018 0.0
0.276665 0.175718 0.0
0.223826 0.114897 0.0
0.209313 0.032170 0.0
0.234279 -0.065052 0.0
0.285772 -0.157607 0.0
0.351699 -0.225349 0.0
0.429250 -0.256563 0.0
0.519030 -0.244891 0.0
0.621476 -0.190236 0.0
0.735224 -0.100361 0.0
0.846677 0.000206 0.0
0.937331 0.085408 0.0
1.005043 0.150513 0.0
1.055557 0.201409 0.0
1.091292 0.240703 0.0
1.113658 0.269572 0.0
1.123879 0.288690 0.0
1.123170 0.298603 0.0
1.112729 0.299888 0.0
1.093644 0.293240 0.0
1.066682 0.279637 0.0
1.031815 0.260755 0.0
0.987705 0.239543 0.0
0.932123 0.220024 0.0
0.864509 0.204995 0.0
0.789559 0.192566 0.0
0.717797 0.175713 0.0
0.660997 0.146962 0.0
0.626204 0.103746 0.0
0.613489 0.049309 0.0
0.618045 -0.009744 0.0
0.633354 -0.065885 0.0
0.654084 -0.114593 0.0
0.677394 -0.153898 0.0
0.702208 -0.183193 0.0
0.728523 -0.202433 0.0
0.757008 -0.211654 0.0
0.788704 -0.210768 0.0
0.824675 -0.199630 0.0
0.865639 -0.178316 0.0
0.911643 -0.147511 0.0
0.961864 -0.108802 0.0
1.014579 -0.064765 0.0
1.066473 -0.019635 0.0
1.111900 0.020928 0.0
1.147199 0.053689 0.0
1.172650 0.078880 0.0
1.189323 0.097420 0.0
1.198286 0.110196 0.0
1.200573 0.118065 0.0
1.197169 0.121843 0.0
1.188994 0.122307 0.0
1.176894 0.120186 0.0
1.161637 0.116167 0.0
1.143911 0.110899 0.0
1.124323 0.104978 0.0
1.103407 0.098921 0.0
1.081643 0.093106 0.0
1.059483 0.087714 0.0
1.037389 0.082676 0.0
1.015864 0.077671 0.0
0.995475 0.072198 0.0
0.976837 0.065705 0.0
0.960573 0.057742 0.0
0.947243 0.048100 0.0
0.937270 0.036873 0.0
0.930869 0.024459 0.0
0.928017 0.011482 0.0
0.928450 -0.001306 0.0
0.931663 -0.013069 0.0
0.936989 -0.023083 0.0
0.943736 -0.030868 0.0
0.951262 -0.036184 0.0
0.959003 -0.038985 0.0
0.966477 -0.039372 0.0
0.973267 -0.037537 0.0
0.979000 -0.033749 0.0
0.983211 -0.027890 0.0
0.998774 -0.014363 0.0
0.993707 -0.043325 0.0
0.982908 -0.074507 0.0
0.964904 -0.110462 0.0
0.936970 -0.154998 0.0
0.894117 -0.214568 0.0
0.826568 -0.301521 0.0
0.715331 -0.441335 0.0
0.322838 -0.755874 0.0
-0.484871 0.269225 0.0
-0.484871 0.000000 0.0
-0.029664 -0.020326 0.0
-0.039846 -0.061965 0.0
0.019573 -0.067642 0.0
0.106765 -0.026701 0.0
0.173916 0.057399 0.0
0.195765 0.132338 0.0
0.185727 0.197858 0.0
0.150602 0.250719 0.0
0.097557 0.285876 0.0
0.037309 0.297431 0.0
-0.016569 0.278184 0.0
-0.051815 0.222183 0.0
-0.060610 0.130066 0.0
-0.040004 0.010906 0.0
0.003963 -0.112720 0.0
0.061224 -0.218693 0.0
0.125803 -0.294770 0.0
0.197034 -0.335925 0.0
0.278054 -0.336330 0.0
0.371491 -0.294681 0.0
0.478003 -0.216176 0.0
0.595268 -0.112697 0.0
0.710236 -0.007311 0.0
0.805534 0.080222 0.0
0.878471 0.148249 0.0
0.934003 0.202596 0.0
0.974046 0.245270 0.0
0.999766 0.277051 0.0
1.012226 0.298490 0.0
1.012418 0.310250 0.0
1.001070 0.313310 0.0
0.978299 0.309300 0.0
0.943328 0.300930 0.0
0.895006 0.291799 0.0
0.833950 0.284405 0.0
0.765400 0.276777 0.0
0.699625 0.261507 0.0
0.647920 0.230239 0.0
0.617115 0.180042 0.0
0.607441 0.115133 0.0
0.614591 0.043487 0.0
0.632474 -0.026362 0.0
0.655443 -0.087546 0.0
0.679763 -0.137982 0.0
0.703401 -0.177456 0.0
0.725444 -0.206492 0.0
0.745866 -0.225870 0.0
0.765416 -0.236252 0.0
0.785478 -0.237927 0.0
0.807795 -0.230759 0.0
0.834049 -0.214405 0.0
0.865382 -0.188759 0.0
0.902042 -0.154435 0.0
0.943261 -0.113066 0.0
0.987347 -0.067314 0.0
1.031482 -0.020955 0.0
1.071044 0.020712 0.0
1.102745 0.054705 0.0
1.126381 0.081287 0.0
1.142519 0.101230 0.0
1.151892 0.115370 0.0
1.155284 0.124549 0.0
1.153473 0.129588 0.0
1.147201 0.131277 0.0
1.137160 0.130374 0.0
1.123980 0.127599 0.0
1.108233 0.123614 0.0
1.090447 0.118986 0.0
1.071137 0.114114 0.0
1.050842 0.109160 0.0
1.030167 0.103999 0.0
1.009804 0.098235 0.0
0.990529 0.091299 0.0
0.973152 0.082619 0.0
0.958443 0.071803 0.0
0.947027 0.058785 0.0
0.939305 0.043883 0.0
0.935396 0.027760 0.0
0.935121 0.011307 0.0
0.938018 -0.004461 0.0
0.943379 -0.018487 0.0
0.950410 -0.030023 0.0
0.958387 -0.038653 0.0
0.966697 -0.044235 0.0
0.974844 -0.046822 0.0
0.982426 -0.046592 0.0
0.989112 -0.043791 0.0
0.994606 -0.038721 0.0
0.998502 -0.031025 0.0
0.998328 -0.011465 0.0
0.991436 -0.034264 0.0
0.976735 -0.058068 0.0
0.952065 -0.084227 0.0
0.913256 -0.114490 0.0
0.852262 -0.151229 0.0
0.752252 -0.197301 0.0
0.573009 -0.255075 0.0
0.228202 -0.307415 0.0
0.000000 0.269225 0.0
-0.000000 -0.000000 0.0
0.000000 0.000000 0.0
-0.039793 -0.040723 0.0
-0.082955 -0.104211 0.0
-0.085229 -0.075049 0.0
-0.076279 0.029645 0.0
-0.069776 0.131740 0.0
-0.080716 0.219434 0.0
-0.105309 0.288861 0.0
-0.137029 0.332498 0.0
-0.167479 0.341507 0.0
-0.187560 0.308067 0.0
-0.189427 0.229412 0.0
-0.167606 0.109811 0.0
-0.123821 -0.033231 0.0
-0.070633 -0.165738 0.0
-0.017155 -0.276413 0.0
0.035817 -0.354601 0.0
0.089800 -0.401307 0.0
0.150022 -0.412190 0.0
0.222219 -0.384455 0.0
0.309426 -0.320122 0.0
0.410549 -0.227139 0.0
0.520735 -0.118023 0.0
0.627747 -0.011375 0.0
0.717133 0.077522 0.0
0.786253 0.148669 0.0
0.838773 0.206633 0.0
0.876003 0.252739 0.0
0.898695 0.287651 0.0
0.907357 0.312235 0.0
0.902109 0.327921 0.0
0.882585 0.336985 0.0
0.848423 0.342379 0.0
0.800875 0.346221 0.0
0.744984 0.346931 0.0
0.690106 0.337680 0.0
0.646875 0.309610 0.0
0.622330 0.258385 0.0
0.617458 0.187573 0.0
0.628728 0.106007 0.0
0.651026 0.023165 0.0
0.678770 -0.051667 0.0
0.707473 -0.113912 0.0
0.734659 -0.163121 0.0
0.758775 -0.200071 0.0
0.778935 -0.226079 0.0
0.794899 -0.242669 0.0
0.807146 -0.251250 0.0
0.816936 -0.252781 0.0
0.826246 -0.247532 0.0
0.837452 -0.235092 0.0
0.852791 -0.214743 0.0
0.873755 -0.186075 0.0
0.900699 -0.149588 0.0
0.932782 -0.106961 0.0
0.968229 -0.060890 0.0
1.004343 -0.015028 0.0
1.037236 0.025852 0.0
1.064227 0.059513 0.0
1.084910 0.086182 0.0
1.099472 0.106483 0.0
1.108341 0.121176 0.0
1.112046 0.131068 0.0
1.111141 0.136973 0.0
1.106171 0.139688 0.0
1.097659 0.139977 0.0
1.086107 0.138535 0.0
1.072026 0.135932 0.0
1.055969 0.132535 0.0
1.038576 0.128428 0.0
1.020599 0.123384 0.0
1.002906 0.116907 0.0
0.986432 0.108377 0.0
0.972095 0.097254 0.0
0.960692 0.083280 0.0
0.952792 0.066624 0.0
0.948661 0.047897 0.0
0.948240 0.028077 0.0
0.951163 0.008342 0.0
0.956750 -0.009980 0.0
0.964139 -0.025718 0.0
0.972522 -0.038206 0.0
0.981236 -0.047160 0.0
0.989766 -0.052569 0.0
0.997732 -0.054601 0.0
1.004853 -0.053517 0.0
1.010912 -0.049612 0.0
1.015726 -0.043209 0.0
1.018992 -0.033698 0.0
0.998123 -0.007916 0.0
0.990425 -0.023223 0.0
0.974149 -0.038131 0.0
0.947247 -0.052592 0.0
0.906026 -0.066094 0.0
0.844394 -0.077000 0.0
0.752969 -0.080093 0.0
0.620550 -0.060621 0.0
0.447534 0.021536 0.0
0.176184 0.157875 0.0
0.000000 0.000000 0.0
-0.000000 -0.000000 0.0
0.000000 0.000000 0.0
-0.048912 -0.050421 0.0
-0.110015 -0.063951 0.0
-0.135227 0.034809 0.0
-0.156328 0.141175 0.0
-0.171102 0.235712 0.0
-0.184239 0.310313 0.0
-0.195731 0.354259 0.0
-0.201285 0.355751 0.0
-0.194135 0.306755 0.0
-0.167668 0.206125 0.0
-0.116582 0.060192 0.0
-0.052275 -0.091704 0.0
0.005939 -0.218667 0.0
0.051322 -0.322345 0.0
0.085974 -0.396294 0.0
0.115164 -0.442786 0.0
0.144565 -0.460334 0.0
0.182195 -0.446138 0.0
0.235378 -0.398829 0.0
0.307002 -0.321178 0.0
0.394116 -0.221284 0.0
0.489621 -0.110631 0.0
0.581546 -0.004532 0.0
0.658390 0.084759 0.0
0.717918 0.158494 0.0
0.762020 0.219546 0.0
0.791191 0.268980 0.0
0.805463 0.307971 0.0
0.804637 0.338258 0.0
0.788764 0.362044 0.0
0.759291 0.380953 0.0
0.720631 0.393855 0.0
0.680746 0.395073 0.0
0.649159 0.376003 0.0
0.632992 0.330686 0.0
0.634256 0.260590 0.0
0.650600 0.173897 0.0
0.677937 0.081077 0.0
0.711485 -0.007752 0.0
0.746335 -0.083344 0.0
0.779199 -0.143803 0.0
0.808374 -0.189590 0.0
0.832708 -0.222053 0.0
0.851464 -0.243014 0.0
0.864301 -0.254536 0.0
0.871350 -0.258680 0.0
0.873394 -0.257185 0.0
0.872041 -0.251085 0.0
0.869731 -0.240436 0.0
0.869384 -0.224390 0.0
0.873715 -0.201725 0.0
0.884507 -0.171674 0.0
0.902157 -0.134608 0.0
0.925709 -0.092242 0.0
0.953239 -0.047321 0.0
0.981933 -0.003442 0.0
1.008490 0.035258 0.0
1.030830 0.067413 0.0
1.048379 0.093141 0.0