# vtk DataFile Version 3.0
Vector Field
ASCII
DATASET RECTILINEAR_GRID
DIMENSIONS 100 26 1
X_COORDINATES 100 double
0.050000 0.150000 0.250000 0.350000 0.450000 0.550000 0.650000 0.750000 0.850000 0.950000 1.050000 1.150000 1.250000 1.350000 1.450000 1.550000 1.650000 1.750000 1.850000 1.950000 2.050000 2.150000 2.250000 2.350000 2.450000 2.550000 2.650000 2.750000 2.850000 2.950000 3.050000 3.150000 3.250000 3.350000 3.450000 3.550000 3.650000 3.750000 3.850000 3.950000 4.050000 4.150000 4.250000 4.350000 4.450000 4.550000 4.650000 4.750000 4.850000 4.950000 5.050000 5.150000 5.250000 5.350000 5.450000 5.550000 5.650000 5.750000 5.850000 5.950000 6.050000 6.150000 6.250000 6.350000 6.450000 6.550000 6.650000 6.750000 6.850000 6.950000 7.050000 7.150000 7.250000 7.350000 7.450000 7.550000 7.650000 7.750000 7.850000 7.950000 8.050000 8.150000 8.250000 8.350000 8.450000 8.550000 8.650000 8.750000 8.850000 8.950000 9.050000 9.150000 9.250000 9.350000 9.450000 9.550000 9.650000 9.750000 9.850000 9.950000 
Y_COORDINATES 26 double
0.050000 0.150000 0.250000 0.350000 0.450000 0.550000 0.650000 0.750000 0.850000 0.950000 1.050000 1.150000 1.250000 1.350000 1.450000 1.550000 1.650000 1.750000 1.850000 1.950000 2.050000 2.150000 2.250000 2.350000 2.450000 2.550000 
Z_COORDINATES 1 double
0.0
POINT_DATA 2600
VECTORS Vektorfeld double
1.000801 -0.000801 0.0
1.004446 -0.002844 0.0
1.012315 -0.005025 0.0
1.024571 -0.007231 0.0
1.041173 -0.009371 0.0
1.061879 -0.011335 0.0
1.086186 -0.012972 0.0
1.113268 -0.014111 0.0
1.141975 -0.014595 0.0
1.170913 -0.014343 0.0
1.198661 -0.013404 0.0
1.224015 -0.011949 0.0
1.246174 -0.010209 0.0
1.264798 -0.008415 0.0
1.279975 -0.006761 0.0
1.292124 -0.005388 0.0
1.301891 -0.004379 0.0
1.310023 -0.003753 0.0
1.317247 -0.003471 0.0
1.324140 -0.003422 0.0
1.330994 -0.003433 0.0
1.337711 -0.003284 0.0
1.343748 -0.002753 0.0
1.348178 -0.001678 0.0
1.349869 -0.000013 0.0
1.347673 0.002208 0.0
1.340633 0.004833 0.0
1.328145 0.007654 0.0
1.310032 0.010459 0.0
1.286511 0.013061 0.0
1.258134 0.015316 0.0
1.225693 0.017126 0.0
1.190134 0.018433 0.0
1.152490 0.019210 0.0
1.113830 0.019450 0.0
1.075225 0.019155 0.0
1.037737 0.018333 0.0
1.002412 0.016992 0.0
0.970284 0.015136 0.0
0.942391 0.012757 0.0
0.919813 0.009822 0.0
0.903714 0.006277 0.0
0.895329 0.002109 0.0
0.895658 -0.002437 0.0
0.905130 -0.007036 0.0
0.923662 -0.011496 0.0
0.950761 -0.015603 0.0
0.985439 -0.019075 0.0
1.026100 -0.021587 0.0
1.070481 -0.022794 0.0
1.115656 -0.022381 0.0
1.158184 -0.020147 0.0
1.194468 -0.016137 0.0
1.221351 -0.010746 0.0
1.236816 -0.004719 0.0
1.240368 0.001167 0.0
1.232575 0.006626 0.0
1.214508 0.011441 0.0
1.187624 0.015443 0.0
1.153654 0.018527 0.0
1.114474 0.020653 0.0
1.071995 0.021826 0.0
1.028086 0.022083 0.0
0.984543 0.021460 0.0
0.943094 0.019989 0.0
0.905409 0.017696 0.0
0.873068 0.014645 0.0
0.847445 0.010978 0.0
0.829531 0.006937 0.0
0.819727 0.002867 0.0
0.817629 -0.000769 0.0
0.821973 -0.003574 0.0
0.831221 -0.005674 0.0
0.844195 -0.007301 0.0
0.860179 -0.008683 0.0
0.878871 -0.010009 0.0
0.900287 -0.011406 0.0
0.924619 -0.012926 0.0
0.952074 -0.014528 0.0
0.982678 -0.016076 0.0
1.016105 -0.017350 0.0
1.051527 -0.018072 0.0
1.087537 -0.017938 0.0
1.122136 -0.016661 0.0
1.152848 -0.014051 0.0
1.177023 -0.010124 0.0
1.192356 -0.005210 0.0
1.197468 0.000097 0.0
1.192015 0.005356 0.0
1.176300 0.010359 0.0
1.151120 0.014821 0.0
1.117918 0.018381 0.0
1.078918 0.020619 0.0
1.037170 0.021130 0.0
0.996362 0.019679 0.0
0.960295 0.016388 0.0
0.932078 0.011830 0.0
0.913282 0.006967 0.0
0.903421 0.002894 0.0
0.897904 0.002622 0.0
1.001351 -0.002953 0.0
1.006402 -0.009388 0.0
1.016090 -0.016038 0.0
1.030337 -0.022721 0.0
1.049080 -0.029225 0.0
1.072122 -0.035229 0.0
1.099013 -0.040275 0.0
1.128938 -0.043815 0.0
1.160667 -0.045326 0.0
1.192621 -0.044506 0.0
1.223146 -0.041515 0.0
1.250879 -0.036925 0.0
1.274973 -0.031486 0.0
1.295136 -0.025925 0.0
1.311545 -0.020837 0.0
1.324730 -0.016646 0.0
1.335442 -0.013600 0.0
1.344541 -0.011764 0.0
1.352875 -0.011018 0.0
1.361146 -0.011039 0.0
1.369772 -0.011295 0.0
1.378730 -0.011097 0.0
1.387475 -0.009720 0.0
1.394945 -0.006610 0.0
1.399738 -0.001563 0.0
1.400430 0.005261 0.0
1.395908 0.013343 0.0
1.385525 0.022015 0.0
1.369132 0.030606 0.0
1.347027 0.038541 0.0
1.319853 0.045387 0.0
1.288490 0.050859 0.0
1.253956 0.054793 0.0
1.217335 0.057115 0.0
1.179728 0.057812 0.0
1.142226 0.056899 0.0
1.105897 0.054405 0.0
1.071784 0.050359 0.0
1.040899 0.044783 0.0
1.014214 0.037688 0.0
0.992613 0.029071 0.0
0.976799 0.018939 0.0
0.967238 0.007391 0.0
0.964398 -0.005208 0.0
0.969027 -0.018365 0.0
0.981878 -0.031551 0.0
1.003249 -0.044018 0.0
1.032778 -0.054866 0.0
1.069445 -0.063125 0.0
1.111608 -0.067800 0.0
1.156982 -0.067923 0.0
1.202597 -0.062748 0.0
1.244893 -0.052116 0.0
1.280080 -0.036837 0.0
1.304785 -0.018799 0.0
1.316898 -0.000417 0.0
1.316261 0.016640 0.0
1.304150 0.031606 0.0
1.282324 0.043988 0.0
1.252769 0.053509 0.0
1.217538 0.060082 0.0
1.178657 0.063757 0.0
1.138058 0.064660 0.0
1.097551 0.062934 0.0
1.058793 0.058722 0.0
1.023241 0.052199 0.0
0.992050 0.043675 0.0
0.965935 0.033686 0.0
0.945061 0.023017 0.0
0.929070 0.012581 0.0
0.917437 0.003248 0.0
0.909922 -0.004420 0.0
0.906329 -0.010483 0.0
0.906268 -0.015405 0.0
0.909442 -0.019736 0.0
0.915784 -0.023990 0.0
0.925501 -0.028558 0.0
0.939015 -0.033622 0.0
0.956806 -0.039078 0.0
0.979196 -0.044521 0.0
1.006162 -0.049299 0.0
1.037216 -0.052601 0.0
1.071365 -0.053569 0.0
1.107143 -0.051406 0.0
1.142646 -0.045522 0.0
1.175554 -0.035737 0.0
1.203144 -0.022519 0.0
1.222532 -0.007093 0.0
1.231719 0.008813 0.0
1.230520 0.023817 0.0
1.220011 0.037051 0.0
1.201819 0.047545 0.0
1.178016 0.054258 0.0
1.150976 0.056278 0.0
1.123145 0.053170 0.0
1.096742 0.045365 0.0
1.073468 0.034344 0.0
1.054266 0.022451 0.0
1.039256 0.012281 0.0
1.028389 0.009619 0.0
1.001240 -0.005545 0.0
1.006119 -0.016726 0.0
1.015788 -0.028056 0.0
1.030287 -0.039449 0.0
1.049697 -0.050650 0.0
1.074004 -0.061154 0.0
1.102924 -0.070161 0.0
1.135687 -0.076618 0.0
1.170886 -0.079450 0.0
1.206439 -0.077888 0.0
1.240043 -0.072262 0.0
1.269909 -0.063777 0.0
1.295091 -0.053910 0.0
1.315415 -0.043989 0.0
1.331279 -0.035047 0.0
1.343455 -0.027797 0.0
1.352942 -0.022648 0.0
1.360845 -0.019719 0.0
1.368272 -0.018824 0.0
1.376196 -0.019429 0.0
1.385273 -0.020607 0.0
1.395607 -0.021079 0.0
1.406551 -0.019427 0.0
1.416694 -0.014516 0.0
1.424158 -0.005915 0.0
1.427128 0.005951 0.0
1.424252 0.020051 0.0
1.414815 0.035126 0.0
1.398743 0.049958 0.0
1.376493 0.063544 0.0
1.348886 0.075165 0.0
1.316957 0.084374 0.0
1.281826 0.090942 0.0
1.244626 0.094787 0.0
1.206451 0.095922 0.0
1.168341 0.094402 0.0
1.131272 0.090301 0.0
1.096151 0.083697 0.0
1.063819 0.074662 0.0
1.035041 0.063271 0.0
1.010524 0.049606 0.0
0.990974 0.033767 0.0
0.977210 0.015888 0.0
0.970183 -0.003838 0.0
0.970764 -0.024944 0.0
0.979427 -0.046486 0.0
0.996119 -0.067146 0.0
1.020398 -0.085546 0.0
1.051662 -0.100376 0.0
1.089204 -0.110255 0.0
1.131969 -0.113607 0.0
1.178154 -0.108865 0.0
1.224878 -0.095019 0.0
1.268128 -0.072371 0.0
1.303249 -0.043092 0.0
1.326133 -0.011121 0.0
1.334990 0.019122 0.0
1.330740 0.045485 0.0
1.315492 0.067181 0.0
1.291539 0.083824 0.0
1.261170 0.095366 0.0
1.226536 0.101987 0.0
1.189572 0.103993 0.0
1.151947 0.101734 0.0
1.115039 0.095588 0.0
1.079907 0.086017 0.0
1.047277 0.073678 0.0
1.017576 0.059498 0.0
0.991030 0.044625 0.0
0.967778 0.030216 0.0
0.947891 0.017133 0.0
0.931310 0.005789 0.0
0.917928 -0.003717 0.0
0.907603 -0.011786 0.0
0.900251 -0.019176 0.0
0.896096 -0.026738 0.0
0.895741 -0.035173 0.0
0.900028 -0.044809 0.0
0.909769 -0.055421 0.0
0.925440 -0.066239 0.0
0.947006 -0.076114 0.0
0.973904 -0.083737 0.0
1.005129 -0.087808 0.0
1.039355 -0.087170 0.0
1.075027 -0.080931 0.0
1.110414 -0.068623 0.0
1.143625 -0.050434 0.0
1.172574 -0.027517 0.0
1.194909 -0.002286 0.0
1.208893 0.022132 0.0
1.214413 0.043723 0.0
1.212423 0.061055 0.0
1.204215 0.072759 0.0
1.191238 0.077794 0.0
1.174912 0.075813 0.0
1.156520 0.067516 0.0
1.137240 0.054748 0.0
1.118264 0.040225 0.0
1.100869 0.026912 0.0
1.087312 0.019412 0.0
1.001193 -0.007978 0.0
1.005959 -0.023937 0.0
1.015565 -0.040121 0.0
1.030261 -0.056579 0.0
1.050412 -0.073082 0.0
1.076369 -0.088986 0.0
1.108219 -0.103097 0.0
1.145399 -0.113625 0.0
1.186334 -0.118577 0.0
1.227939 -0.115920 0.0
1.266497 -0.106393 0.0
1.299461 -0.092476 0.0
1.325864 -0.076795 0.0
1.345879 -0.061443 0.0
1.360332 -0.047910 0.0
1.370392 -0.037172 0.0
1.377418 -0.029786 0.0
1.382864 -0.025930 0.0
1.388216 -0.025392 0.0
1.394893 -0.027462 0.0
1.404025 -0.030783 0.0
1.416066 -0.033279 0.0
1.430355 -0.032461 0.0
1.444925 -0.026195 0.0
1.456875 -0.013651 0.0
1.463357 0.004235 0.0
1.462467 0.025534 0.0
1.453418 0.048131 0.0
1.436348 0.070095 0.0
1.412072 0.089933 0.0
1.381795 0.106659 0.0
1.346878 0.119727 0.0
1.308681 0.128917 0.0
1.268478 0.134215 0.0
1.227428 0.135719 0.0
1.186565 0.133577 0.0
1.146813 0.127948 0.0
1.109001 0.118983 0.0
1.073880 0.106828 0.0
1.042150 0.091612 0.0
1.014501 0.073432 0.0
0.991658 0.052334 0.0
0.974382 0.028362 0.0
0.963320 0.001776 0.0
0.958769 -0.026588 0.0
0.960550 -0.055286 0.0
0.968241 -0.082729 0.0
0.981684 -0.107684 0.0
1.001335 -0.129153 0.0
1.028060 -0.145745 0.0
1.062477 -0.155298 0.0
1.104263 -0.155145 0.0
1.151712 -0.142911 0.0
1.201544 -0.117560 0.0
1.248923 -0.080402 0.0
1.287920 -0.035691 0.0
1.313078 0.009677 0.0
1.322636 0.049624 0.0
1.318425 0.082501 0.0
1.303092 0.107791 0.0
1.279331 0.125529 0.0
1.249669 0.136121 0.0
1.216316 0.140177 0.0
1.181094 0.138396 0.0
1.145406 0.131521 0.0
1.110251 0.120371 0.0
1.076293 0.105912 0.0
1.043974 0.089284 0.0
1.013621 0.071736 0.0
0.985497 0.054481 0.0
0.959746 0.038507 0.0
0.936330 0.024413 0.0
0.915088 0.012285 0.0
0.895988 0.001637 0.0
0.879379 -0.008637 0.0
0.866141 -0.019884 0.0
0.857578 -0.033109 0.0
0.855014 -0.048596 0.0
0.859348 -0.065708 0.0
0.870803 -0.083077 0.0
0.888952 -0.098991 0.0
0.912917 -0.111723 0.0
0.941581 -0.119710 0.0
0.973714 -0.121628 0.0
1.008047 -0.116478 0.0
1.043282 -0.103698 0.0
1.078087 -0.083373 0.0
1.111040 -0.056481 0.0
1.140528 -0.025145 0.0
1.164485 0.007050 0.0
1.181503 0.036267 0.0
1.191607 0.060398 0.0
1.195379 0.077852 0.0
1.193527 0.087530 0.0
1.186805 0.089125 0.0
1.176031 0.083369 0.0
1.162193 0.072014 0.0
1.146573 0.057555 0.0
1.130791 0.042759 0.0
1.117509 0.030403 0.0
1.001126 -0.010298 0.0
1.005659 -0.030916 0.0
1.014933 -0.052022 0.0
1.029459 -0.073899 0.0
1.050030 -0.096484 0.0
1.077609 -0.119120 0.0
1.113034 -0.140237 0.0
1.156345 -0.156976 0.0
1.206214 -0.166031 0.0
1.257461 -0.161318 0.0
1.303092 -0.145184 0.0
1.339496 -0.123053 0.0
1.366252 -0.099377 0.0
1.384441 -0.077066 0.0
1.395642 -0.057941 0.0
1.401572 -0.043131 0.0
1.403996 -0.033276 0.0
1.404725 -0.028615 0.0
1.405660 -0.028994 0.0
1.408812 -0.033688 0.0
1.416129 -0.041005 0.0
1.428909 -0.047877 0.0
1.446908 -0.050149 0.0
1.467713 -0.043883 0.0
1.486961 -0.027162 0.0
1.499742 -0.001517 0.0
1.502810 0.029108 0.0
1.495223 0.061192 0.0
1.477502 0.091825 0.0
1.451029 0.118953 0.0
1.417567 0.141378 0.0
1.378923 0.158569 0.0
1.336764 0.170430 0.0
1.292558 0.177110 0.0
1.247565 0.178867 0.0
1.202865 0.175992 0.0
1.159388 0.168762 0.0
1.117949 0.157420 0.0
1.079286 0.142176 0.0
1.044085 0.123196 0.0
1.012984 0.100598 0.0
0.986513 0.074481 0.0
0.964916 0.045089 0.0
0.947930 0.013098 0.0
0.934797 -0.020225 0.0
0.924717 -0.053348 0.0
0.917534 -0.085176 0.0
0.914411 -0.115558 0.0
0.917847 -0.144365 0.0
0.930617 -0.170027 0.0
0.954447 -0.189264 0.0
0.989421 -0.197939 0.0
1.034091 -0.192236 0.0
1.085756 -0.169732 0.0
1.140523 -0.130376 0.0
1.193173 -0.077364 0.0
1.237102 -0.017737 0.0
1.266382 0.038200 0.0
1.279674 0.084843 0.0
1.279191 0.121266 0.0
1.267542 0.147462 0.0
1.247362 0.164029 0.0
1.221079 0.171905 0.0
1.190775 0.172194 0.0
1.158116 0.166070 0.0
1.124351 0.154744 0.0
1.090363 0.139485 0.0
1.056771 0.121623 0.0
1.023996 0.102525 0.0
0.992280 0.083533 0.0
0.961667 0.065818 0.0
0.932084 0.050100 0.0
0.903597 0.036326 0.0
0.876773 0.023519 0.0
0.852846 0.010016 0.0
0.833459 -0.005911 0.0
0.820246 -0.025306 0.0
0.814415 -0.048003 0.0
0.816379 -0.072600 0.0
0.825763 -0.097024 0.0
0.841699 -0.119128 0.0
0.863138 -0.136991 0.0
0.889026 -0.148993 0.0
0.918362 -0.153814 0.0
0.950194 -0.150457 0.0
0.983593 -0.138354 0.0
1.017621 -0.117549 0.0
1.051280 -0.088917 0.0
1.083440 -0.054356 0.0
1.112674 -0.016930 0.0
1.137061 0.018843 0.0
1.155430 0.049350 0.0
1.167781 0.072777 0.0
1.174309 0.087929 0.0
1.175341 0.094415 0.0
1.171395 0.092798 0.0
1.163276 0.084542 0.0
1.152159 0.071763 0.0
1.139598 0.056895 0.0
1.128002 0.041146 0.0
1.000992 -0.012415 0.0
1.005010 -0.037350 0.0
1.013371 -0.063223 0.0
1.026871 -0.090724 0.0
1.046846 -0.120204 0.0
1.075171 -0.151304 0.0
1.114053 -0.182359 0.0
1.165021 -0.209134 0.0
1.228785 -0.227506 0.0
1.295020 -0.217324 0.0
1.348802 -0.188591 0.0
1.386406 -0.153653 0.0
1.410039 -0.119165 0.0
1.422804 -0.088232 0.0
1.427347 -0.062518 0.0
1.425891 -0.043028 0.0
1.420446 -0.030358 0.0
1.412944 -0.024761 0.0
1.405456 -0.026295 0.0
1.400506 -0.034589 0.0
1.401194 -0.048109 0.0
1.410456 -0.062815 0.0
1.429445 -0.072198 0.0
1.456230 -0.069424 0.0
1.485460 -0.050097 0.0
1.509230 -0.015133 0.0
1.520865 0.028023 0.0
1.518291 0.072437 0.0
1.502719 0.113873 0.0
1.476402 0.149696 0.0
1.441830 0.178667 0.0
1.401297 0.200458 0.0
1.356752 0.215245 0.0
1.309814 0.223439 0.0
1.261827 0.225518 0.0
1.213922 0.221948 0.0
1.167069 0.213136 0.0
1.122131 0.199422 0.0
1.079888 0.181079 0.0
1.041048 0.158334 0.0
1.006164 0.131445 0.0
0.975394 0.100875 0.0
0.948129 0.067557 0.0
0.922761 0.032985 0.0
0.897136 -0.001355 0.0
0.870222 -0.035225 0.0
0.843902 -0.069798 0.0
0.822875 -0.106786 0.0
0.812506 -0.146204 0.0
0.816161 -0.184613 0.0
0.834230 -0.216578 0.0
0.865191 -0.236559 0.0
0.906852 -0.239948 0.0
0.956833 -0.223667 0.0
1.012438 -0.186814 0.0
1.070272 -0.131409 0.0
1.125735 -0.063084 0.0
1.172054 0.007947 0.0
1.203904 0.069954 0.0
1.220874 0.119670 0.0
1.224830 0.156752 0.0
1.217970 0.181779 0.0
1.202536 0.195873 0.0
1.180617 0.200450 0.0
1.154028 0.197060 0.0
1.124256 0.187291 0.0
1.092450 0.172731 0.0
1.059454 0.154965 0.0
1.025815 0.135595 0.0
0.991794 0.116199 0.0
0.957450 0.098110 0.0
0.922893 0.081948 0.0
0.888710 0.067148 0.0
0.856297 0.051936 0.0
0.827779 0.034045 0.0
0.805420 0.011807 0.0
0.790743 -0.015135 0.0
0.784170 -0.045770 0.0
0.785303 -0.077930 0.0
0.793284 -0.109058 0.0
0.807095 -0.136841 0.0
0.825761 -0.159383 0.0
0.848425 -0.175153 0.0
0.874345 -0.182910 0.0
0.902860 -0.181708 0.0
0.933344 -0.170986 0.0
0.965153 -0.150754 0.0
0.997577 -0.121795 0.0
1.029779 -0.085841 0.0
1.060731 -0.045632 0.0
1.088921 -0.005032 0.0
1.112576 0.031201 0.0
1.130774 0.060376 0.0
1.143392 0.081184 0.0
1.150465 0.093056 0.0
1.152270 0.096298 0.0
1.149406 0.092026 0.0
1.142840 0.081961 0.0
1.133898 0.068199 0.0
1.124558 0.050778 0.0
1.000750 -0.014157 0.0
1.003808 -0.042686 0.0
1.010317 -0.072757 0.0
1.021294 -0.105667 0.0
1.038603 -0.142545 0.0
1.065258 -0.183944 0.0
1.105653 -0.228996 0.0
1.164535 -0.272348 0.0
1.250077 -0.313596 0.0
1.337713 -0.285105 0.0
1.394593 -0.231474 0.0
1.424243 -0.178026 0.0
1.436569 -0.130751 0.0
1.437710 -0.090552 0.0
1.430931 -0.057962 0.0
1.418324 -0.033521 0.0
1.401566 -0.017661 0.0
1.382079 -0.010468 0.0
1.361310 -0.012330 0.0
1.341544 -0.023838 0.0
1.326951 -0.044956 0.0
1.323040 -0.071320 0.0
1.333846 -0.093487 0.0
1.359863 -0.100938 0.0
1.397364 -0.085313 0.0
1.437387 -0.043711 0.0
1.466822 0.015531 0.0
1.478189 0.076136 0.0
1.472852 0.131082 0.0
1.454289 0.177366 0.0
1.425778 0.214079 0.0
1.389979 0.241380 0.0
1.348966 0.259880 0.0
1.304394 0.270314 0.0
1.257633 0.273391 0.0
1.209873 0.269740 0.0
1.162180 0.259888 0.0
1.115533 0.244256 0.0
1.070840 0.223182 0.0
1.028892 0.197017 0.0
0.990143 0.166395 0.0
0.954181 0.132658 0.0
0.919126 0.098094 0.0
0.881763 0.065179 0.0
0.839460 0.034379 0.0
0.793354 0.002062 0.0
0.750434 -0.037844 0.0
0.720442 -0.087720 0.0
0.708753 -0.143213 0.0
0.714290 -0.196796 0.0
0.733368 -0.241541 0.0
0.762854 -0.272042 0.0
0.800843 -0.284114 0.0
0.846108 -0.274746 0.0
0.897401 -0.242634 0.0
0.952945 -0.188966 0.0
1.010040 -0.118085 0.0
1.064533 -0.037864 0.0
1.109858 0.038590 0.0
1.141788 0.102134 0.0
1.160643 0.151476 0.0
1.167698 0.186859 0.0
1.164590 0.209335 0.0
1.153063 0.220434 0.0
1.134798 0.221929 0.0
1.111305 0.215688 0.0
1.083853 0.203592 0.0
1.053422 0.187531 0.0
1.020678 0.169414 0.0
0.986001 0.151079 0.0
0.949682 0.133894 0.0
0.912308 0.118095 0.0
0.875176 0.102316 0.0
0.840400 0.083958 0.0
0.810483 0.060457 0.0
0.787552 0.030685 0.0
0.772712 -0.004498 0.0
0.765869 -0.042992 0.0
0.766169 -0.082142 0.0
0.772574 -0.119233 0.0
0.784094 -0.151997 0.0
0.799866 -0.178665 0.0
0.819179 -0.197848 0.0
0.841470 -0.208426 0.0
0.866288 -0.209526 0.0
0.893245 -0.200608 0.0
0.921941 -0.181637 0.0
0.951900 -0.153294 0.0
0.982506 -0.117151 0.0
1.012952 -0.075720 0.0
1.042181 -0.032362 0.0
1.068511 0.008546 0.0
1.090388 0.042956 0.0
1.107199 0.069175 0.0
1.118762 0.086429 0.0
1.125147 0.094735 0.0
1.126736 0.094864 0.0
1.124257 0.088168 0.0
1.118768 0.076423 0.0
1.111809 0.058854 0.0
1.000372 -0.015279 0.0
1.001905 -0.046155 0.0
1.005318 -0.079210 0.0
1.011620 -0.116493 0.0
1.022893 -0.160302 0.0
1.043074 -0.213023 0.0
1.079249 -0.276487 0.0
1.142137 -0.346627 0.0
1.259432 -0.442154 0.0
1.369281 -0.354033 0.0
1.406425 -0.256569 0.0
1.407203 -0.183358 0.0
1.395637 -0.126179 0.0
1.378544 -0.079174 0.0
1.357200 -0.041217 0.0
1.331679 -0.012138 0.0
1.301497 0.007896 0.0
1.267089 0.017872 0.0
1.229948 0.017240 0.0
1.191155 0.005151 0.0
1.152012 -0.020209 0.0
1.119786 -0.059931 0.0
1.105719 -0.101615 0.0
1.116822 -0.129930 0.0
1.153733 -0.130735 0.0
1.209740 -0.094319 0.0
1.269337 -0.022893 0.0
1.313265 0.059265 0.0
1.335187 0.131367 0.0
1.340241 0.190590 0.0
1.332484 0.237123 0.0
1.314659 0.271960 0.0
1.288745 0.296225 0.0
1.256351 0.310936 0.0
1.218919 0.316962 0.0
1.177808 0.315040 0.0
1.134310 0.305779 0.0
1.089656 0.289667 0.0
1.045008 0.267114 0.0
1.001301 0.238739 0.0
0.958566 0.206158 0.0
0.914594 0.172828 0.0
0.864634 0.142937 0.0
0.805132 0.117201 0.0
0.740246 0.089545 0.0
0.682826 0.050424 0.0
0.645181 -0.005640 0.0
0.630272 -0.075024 0.0
0.633075 -0.147024 0.0
0.647104 -0.212553 0.0
0.668257 -0.266015 0.0
0.694889 -0.303688 0.0
0.726839 -0.322407 0.0
0.764486 -0.319366 0.0
0.808005 -0.292827 0.0
0.856871 -0.243183 0.0
0.909642 -0.173735 0.0
0.963819 -0.090884 0.0
1.014817 -0.004713 0.0
1.056909 0.071414 0.0
1.087340 0.132910 0.0
1.106330 0.179380 0.0
1.114705 0.211547 0.0
1.113632 0.230823 0.0
1.104422 0.239015 0.0
1.088386 0.238131 0.0
1.066715 0.230271 0.0
1.040395 0.217602 0.0
1.010158 0.202323 0.0
0.976570 0.186434 0.0
0.940302 0.171126 0.0
0.902524 0.156014 0.0
0.865162 0.138889 0.0
0.830712 0.116612 0.0
0.801598 0.086833 0.0
0.779490 0.049349 0.0
0.765004 0.006163 0.0
0.757831 -0.039636 0.0
0.757124 -0.085090 0.0
0.761915 -0.127481 0.0
0.771286 -0.164639 0.0
0.784420 -0.194930 0.0
0.800650 -0.217127 0.0
0.819483 -0.230270 0.0
0.840596 -0.233613 0.0
0.863780 -0.226663 0.0
0.888851 -0.209350 0.0
0.915551 -0.182241 0.0
0.943470 -0.146729 0.0
0.971985 -0.105104 0.0
1.000238 -0.060460 0.0
1.027050 -0.016498 0.0
1.050763 0.022409 0.0
1.070144 0.053531 0.0
1.084797 0.075858 0.0
1.094596 0.089122 0.0
1.099714 0.093769 0.0
1.100642 0.090813 0.0
1.098183 0.081725 0.0
1.093491 0.065203 0.0
0.999863 -0.015514 0.0
0.999308 -0.046896 0.0
0.998332 -0.080906 0.0
0.997511 -0.120279 0.0
0.998343 -0.168622 0.0
1.004404 -0.230943 0.0
1.024054 -0.314393 0.0
1.075569 -0.423124 0.0
1.223470 -0.630851 0.0
1.330130 -0.381845 0.0
1.293382 -0.229153 0.0
1.235509 -0.153680 0.0
1.190883 -0.099664 0.0
1.155477 -0.053191 0.0
1.121089 -0.011467 0.0
1.080871 0.023851 0.0
1.033308 0.049652 0.0
0.979128 0.064704 0.0
0.918175 0.068502 0.0
0.852064 0.058793 0.0
0.786279 0.031077 0.0
0.728157 -0.020870 0.0
0.694388 -0.092841 0.0
0.702670 -0.158088 0.0
0.751986 -0.188803 0.0
0.829473 -0.169744 0.0
0.922379 -0.099972 0.0
1.012491 0.002305 0.0
1.081058 0.097838 0.0
1.126232 0.173892 0.0
1.154079 0.233732 0.0
1.167519 0.279737 0.0
1.168367 0.313514 0.0
1.158198 0.336211 0.0
1.138592 0.348725 0.0
1.111159 0.351821 0.0
1.077480 0.346174 0.0
1.039017 0.332388 0.0
0.996877 0.311181 0.0
0.951108 0.284146 0.0
0.899601 0.254992 0.0
0.838521 0.229047 0.0
0.766854 0.208346 0.0
0.692309 0.185841 0.0
0.629942 0.148157 0.0
0.591907 0.087267 0.0
0.579522 0.007546 0.0
0.585097 -0.078876 0.0
0.599753 -0.160630 0.0
0.618318 -0.231541 0.0
0.638721 -0.288582 0.0
0.660681 -0.329714 0.0
0.685074 -0.352723 0.0
0.713393 -0.355016 0.0
0.747049 -0.334352 0.0
0.786686 -0.290163 0.0
0.831835 -0.224675 0.0
0.880911 -0.143197 0.0
0.931204 -0.053690 0.0
0.977523 0.031979 0.0
1.015205 0.104232 0.0
1.042902 0.161372 0.0
1.060536 0.203546 0.0
1.068594 0.231839 0.0
1.067888 0.247915 0.0
1.059379 0.253777 0.0
1.044036 0.251639 0.0
1.022730 0.243861 0.0
0.996210 0.232821 0.0
0.965238 0.220496 0.0
0.930883 0.207688 0.0
0.894818 0.193295 0.0
0.859352 0.174437 0.0
0.827012 0.147855 0.0
0.799897 0.111818 0.0
0.779220 0.067149 0.0
0.765309 0.016760 0.0
0.757883 -0.035634 0.0
0.756307 -0.086808 0.0
0.759771 -0.134018 0.0
0.767425 -0.175126 0.0
0.778441 -0.208594 0.0
0.792108 -0.233360 0.0
0.807913 -0.248675 0.0
0.825576 -0.253985 0.0
0.845015 -0.248913 0.0
0.866235 -0.233390 0.0
0.889201 -0.207867 0.0
0.913717 -0.173537 0.0
0.939357 -0.132450 0.0
0.965437 -0.087446 0.0
0.991030 -0.041917 0.0
1.014800 0.000345 0.0
1.035323 0.035691 0.0
1.051776 0.062591 0.0
1.063861 0.080504 0.0
1.071557 0.089573 0.0
1.075141 0.090497 0.0
1.075184 0.084457 0.0
1.072523 0.069825 0.0
0.999277 -0.014654 0.0
0.996297 -0.044220 0.0
0.990092 -0.076401 0.0
0.980316 -0.114186 0.0
0.966705 -0.161937 0.0
0.949753 -0.226736 0.0
0.933000 -0.321498 0.0
0.931593 -0.466128 0.0
1.032274 -0.836429 0.0
1.041815 -0.188717 0.0
0.868837 -0.098408 0.0
0.739905 -0.087225 0.0
0.678263 -0.059851 0.0
0.636959 -0.016294 0.0
0.585599 0.037384 0.0
0.517206 0.083610 0.0
0.437400 0.117261 0.0
0.352202 0.136472 0.0
0.270065 0.139824 0.0
0.202827 0.120820 0.0
0.165245 0.072418 0.0
0.169203 -0.008047 0.0
0.210983 -0.113675 0.0
0.277456 -0.212009 0.0
0.361586 -0.268327 0.0
0.458603 -0.264724 0.0
0.565104 -0.204399 0.0
0.679815 -0.098091 0.0
0.787718 0.021764 0.0
0.872438 0.120073 0.0
0.935416 0.196725 0.0
0.981077 0.257643 0.0
1.010807 0.305030 0.0
1.025724 0.339947 0.0
1.027183 0.363135 0.0
1.016733 0.375295 0.0
0.995942 0.377171 0.0
0.966122 0.369674 0.0
0.927752 0.354404 0.0
0.879702 0.334741 0.0
0.819720 0.315887 0.0
0.748245 0.300708 0.0
0.673528 0.283070 0.0
0.610620 0.248569 0.0
0.571873 0.186543 0.0
0.558863 0.099927 0.0
0.564529 0.001605 0.0
0.580226 -0.094206 0.0
0.599804 -0.179534 0.0
0.619873 -0.251270 0.0
0.638809 -0.308192 0.0
0.656329 -0.349585 0.0
0.673413 -0.374327 0.0
0.692095 -0.380412 0.0
0.714834 -0.365350 0.0
0.743563 -0.327530 0.0
0.778930 -0.267822 0.0
0.820124 -0.190321 0.0
0.865131 -0.101865 0.0
0.910455 -0.011489 0.0
0.951225 0.069248 0.0
0.984123 0.135761 0.0
1.008239 0.187406 0.0
1.023387 0.224772 0.0
1.029843 0.249232 0.0
1.028151 0.262661 0.0
1.018970 0.267278 0.0
1.002988 0.265512 0.0
0.980928 0.259750 0.0
0.953719 0.251747 0.0
0.922746 0.241765 0.0
0.890000 0.228029 0.0
0.857889 0.207280 0.0
0.828730 0.176511 0.0
0.804224 0.134783 0.0
0.785271 0.083814 0.0
0.772137 0.027140 0.0
0.764708 -0.031160 0.0
0.762594 -0.087592 0.0
0.765165 -0.139270 0.0
0.771619 -0.183982 0.0
0.781087 -0.220222 0.0
0.792773 -0.247083 0.0
0.806078 -0.264061 0.0
0.820691 -0.270875 0.0
0.836586 -0.267356 0.0
0.853922 -0.253504 0.0
0.872884 -0.229681 0.0
0.893515 -0.196871 0.0
0.915609 -0.156851 0.0
0.938670 -0.112187 0.0
0.961929 -0.066028 0.0
0.984391 -0.021775 0.0
1.004722 0.016957 0.0
1.021803 0.047791 0.0
1.035129 0.069894 0.0
1.044496 0.083119 0.0
1.049993 0.087870 0.0
1.051993 0.085040 0.0
1.051073 0.072823 0.0
0.998720 -0.012652 0.0
0.993436 -0.037959 0.0
0.982205 -0.065226 0.0
0.963573 -0.096952 0.0
0.934851 -0.136839 0.0
0.891093 -0.191123 0.0
0.822525 -0.271790 0.0
0.711151 -0.403054 0.0
0.320952 -0.713736 0.0
-0.477735 0.247039 0.0
-0.477735 0.000000 0.0
-0.032934 -0.023153 0.0
-0.061657 -0.043339 0.0
-0.029245 -0.023913 0.0
0.029044 0.038074 0.0
0.059120 0.121238 0.0
0.039954 0.178606 0.0
-0.005160 0.205438 0.0
-0.054054 0.201890 0.0
-0.090409 0.162348 0.0
-0.104539 0.082602 0.0
-0.092600 -0.034128 0.0
-0.056449 -0.165526 0.0
-0.000647 -0.282433 0.0
0.073186 -0.355866 0.0
0.163436 -0.364454 0.0
0.266508 -0.314242 0.0
0.381748 -0.218199 0.0
0.507126 -0.091410 0.0
0.624305 0.031348 0.0
0.717762 0.129015 0.0
0.790026 0.207428 0.0
0.844229 0.271313 0.0
0.881276 0.321701 0.0
0.902145 0.359052 0.0
0.908035 0.383937 0.0
0.900122 0.397233 0.0
0.879107 0.400448 0.0
0.844677 0.396432 0.0
0.795815 0.389625 0.0
0.733568 0.383232 0.0
0.665365 0.373040 0.0
0.605266 0.345554 0.0
0.566417 0.287842 0.0
0.552602 0.199831 0.0
0.558482 0.093770 0.0
0.575988 -0.015410 0.0
0.598539 -0.115439 0.0
0.621895 -0.201235 0.0
0.643533 -0.271277 0.0
0.661899 -0.325487 0.0
0.676413 -0.364324 0.0
0.687704 -0.387963 0.0
0.697767 -0.395522 0.0
0.709662 -0.384875 0.0
0.726562 -0.353635 0.0
0.750537 -0.301060 0.0
0.781840 -0.229581 0.0
0.819055 -0.144826 0.0
0.859649 -0.054446 0.0
0.899396 0.031688 0.0
0.934163 0.105655 0.0
0.961966 0.165593 0.0
0.981961 0.211442 0.0
0.993898 0.244170 0.0
0.997887 0.265426 0.0
0.994257 0.277324 0.0
0.983481 0.282224 0.0
0.966233 0.282345 0.0
0.943553 0.279042 0.0
0.917017 0.271979 0.0
0.888716 0.258861 0.0
0.860928 0.236347 0.0
0.835621 0.201911 0.0
0.814128 0.155382 0.0
0.797173 0.099123 0.0
0.785093 0.037045 0.0
0.777996 -0.026538 0.0
0.775724 -0.087828 0.0
0.777793 -0.143673 0.0
0.783452 -0.191691 0.0
0.791806 -0.230336 0.0
0.801970 -0.258819 0.0
0.813236 -0.276896 0.0
0.825204 -0.284621 0.0
0.837829 -0.282132 0.0
0.851365 -0.269601 0.0
0.866191 -0.247371 0.0
0.882608 -0.216228 0.0
0.900665 -0.177645 0.0
0.920085 -0.133873 0.0
0.940278 -0.087793 0.0
0.960410 -0.042604 0.0
0.979397 -0.001533 0.0
0.996095 0.032502 0.0
1.009731 0.058223 0.0
1.019951 0.075203 0.0
1.026681 0.083559 0.0
1.030126 0.083905 0.0
1.030649 0.074355 0.0
0.998317 -0.009689 0.0
0.991381 -0.028701 0.0
0.976607 -0.048479 0.0
0.951891 -0.070351 0.0
0.913182 -0.096009 0.0
0.852612 -0.127626 0.0
0.753608 -0.167716 0.0
0.576897 -0.219042 0.0
0.231066 -0.260579 0.0
0.000000 0.247039 0.0
-0.000000 -0.000000 0.0
0.000000 0.000000 0.0
-0.022757 -0.023775 0.0
-0.060158 -0.037471 0.0
-0.084125 0.017310 0.0
-0.103330 0.131130 0.0
-0.130267 0.214817 0.0
-0.167665 0.251738 0.0
-0.205727 0.242547 0.0
-0.232757 0.185075 0.0
-0.239203 0.080450 0.0
-0.221505 -0.061612 0.0
-0.186265 -0.209434 0.0
-0.143049 -0.337543 0.0
-0.092500 -0.425137 0.0
-0.025191 -0.452742 0.0
0.062220 -0.416438 0.0
0.166460 -0.335484 0.0
0.285557 -0.218601 0.0
0.411927 -0.085009 0.0
0.526931 0.036912 0.0
0.618572 0.135625 0.0
0.689971 0.217513 0.0
0.743273 0.285152 0.0
0.779135 0.338870 0.0
0.798198 0.379166 0.0
0.800931 0.407185 0.0
0.787308 0.425135 0.0
0.757013 0.436470 0.0
0.711282 0.444180 0.0
0.656245 0.445962 0.0
0.604138 0.430620 0.0
0.568241 0.383969 0.0
0.554829 0.301687 0.0
0.561139 0.193492 0.0
0.580456 0.074913 0.0
0.606391 -0.039994 0.0
0.634140 -0.141156 0.0
0.660624 -0.225359 0.0
0.683768 -0.291935 0.0
0.702114 -0.341541 0.0
0.714876 -0.375546 0.0
0.722203 -0.395359 0.0
0.725561 -0.401547 0.0
0.727902 -0.393085 0.0
0.733126 -0.367548 0.0
0.744766 -0.322762 0.0
0.764615 -0.259031 0.0
0.792242 -0.180218 0.0
0.825520 -0.092927 0.0
0.861120 -0.005178 0.0
0.894956 0.073917 0.0
0.923961 0.140524 0.0
0.946693 0.193785 0.0
0.962411 0.234172 0.0
0.970822 0.263024 0.0
0.971932 0.282247 0.0
0.966013 0.293997 0.0
0.953674 0.300159 0.0
0.936005 0.301578 0.0
0.914631 0.297353 0.0
0.891558 0.284861 0.0
0.868771 0.260921 0.0
0.847839 0.223576 0.0
0.829777 0.173272 0.0
0.815210 0.112755 0.0
0.804584 0.046119 0.0
0.798208 -0.022139 0.0
0.796111 -0.087858 0.0
0.797933 -0.147535 0.0
0.802991 -0.198546 0.0
0.810405 -0.239248 0.0
0.819250 -0.268916 0.0
0.828724 -0.287541 0.0
0.838316 -0.295535 0.0
0.847904 -0.293430 0.0
0.857756 -0.281690 0.0
0.868393 -0.260745 0.0
0.880358 -0.231235 0.0
0.893987 -0.194323 0.0
0.909264 -0.151893 0.0
0.925804 -0.106506 0.0
0.942918 -0.061137 0.0
0.959723 -0.018792 0.0
0.975155 0.017631 0.0
0.988307 0.046306 0.0
0.998681 0.066525 0.0
1.006059 0.078128 0.0
1.010499 0.081452 0.0
1.012188 0.074595 0.0
0.998147 -0.006153 0.0
0.990548 -0.017702 0.0
0.974492 -0.028648 0.0
0.948001 -0.038976 0.0
0.907573 -0.048246 0.0
0.847389 -0.054635 0.0
0.758711 -0.053025 0.0
0.630503 -0.028813 0.0
0.470184 0.060233 0.0
0.192665 0.173632 0.0
0.000000 0.000000 0.0
-0.000000 -0.000000 0.0
0.000000 0.000000 0.0
-0.011170 -0.011414 0.0
-0.046005 0.050298 0.0
-0.096630 0.167972 0.0
-0.145835 0.254118 0.0
-0.186908 0.290908 0.0
-0.219482 0.274014 0.0
-0.237064 0.198220 0.0
-0.230020 0.066707 0.0
-0.199646 -0.095942 0.0
-0.161018 -0.248972 0.0
-0.126362 -0.375876 0.0
-0.097614 -0.466101 0.0
-0.067065 -0.509635 0.0
-0.019197 -0.494823 0.0
0.053698 -0.434233 0.0
0.148653 -0.333904 0.0
0.259482 -0.206905 0.0
0.374907 -0.071621 0.0
0.477785 0.049639 0.0
0.559497 0.150388 0.0
0.622709 0.235763 0.0
0.668316 0.306789 0.0
0.696399 0.364101 0.0
0.706790 0.409126 0.0
0.699367 0.444239 0.0
0.675263 0.471765 0.0
0.639203 0.490676 0.0
0.601039 0.492668 0.0
0.572985 0.464074 0.0
0.563014 0.396383 0.0
0.571142 0.294557 0.0
0.592435 0.173019 0.0
0.621674 0.046829 0.0
0.654092 -0.070262 0.0
0.685754 -0.170299 0.0
0.714257 -0.251203 0.0
0.737938 -0.312917 0.0
0.755658 -0.356626 0.0
0.766747 -0.384312 0.0
0.771114 -0.398285 0.0
0.769590 -0.400455 0.0
0.764411 -0.391339 0.0
0.759322 -0.369429 0.0
0.758742 -0.331940 0.0
0.766121 -0.277080 0.0
0.782594 -0.206269 0.0
0.806893 -0.124452 0.0
0.836232 -0.038592 0.0
0.866753 0.042974 0.0
0.894900 0.114315 0.0
0.918577 0.173584 0.0
0.936577 0.220654 0.0
0.948234 0.256473 0.0
0.953277 0.282645 0.0
0.951803 0.300992 0.0
0.944356 0.312949 0.0
0.932007 0.318808 0.0