# vtk DataFile Version 3.0
Vector Field
ASCII
DATASET RECTILINEAR_GRID
DIMENSIONS 100 26 1
X_COORDINATES 100 double
0.050000 0.150000 0.250000 0.350000 0.450000 0.550000 0.650000 0.750000 0.850000 0.950000 1.050000 1.150000 1.250000 1.350000 1.450000 1.550000 1.650000 1.750000 1.850000 1.950000 2.050000 2.150000 2.250000 2.350000 2.450000 2.550000 2.650000 2.750000 2.850000 2.950000 3.050000 3.150000 3.250000 3.350000 3.450000 3.550000 3.650000 3.750000 3.850000 3.950000 4.050000 4.150000 4.250000 4.350000 4.450000 4.550000 4.650000 4.750000 4.850000 4.950000 5.050000 5.150000 5.250000 5.350000 5.450000 5.550000 5.650000 5.750000 5.850000 5.950000 6.050000 6.150000 6.250000 6.350000 6.450000 6.550000 6.650000 6.750000 6.850000 6.950000 7.050000 7.150000 7.250000 7.350000 7.450000 7.550000 7.650000 7.750000 7.850000 7.950000 8.050000 8.150000 8.250000 8.350000 8.450000 8.550000 8.650000 8.750000 8.850000 8.950000 9.050000 9.150000 9.250000 9.350000 9.450000 9.550000 9.650000 9.750000 9.850000 9.950000 
Y_COORDINATES 26 double
0.050000 0.150000 0.250000 0.350000 0.450000 0.550000 0.650000 0.750000 0.850000 0.950000 1.050000 1.150000 1.250000 1.350000 1.450000 1.550000 1.650000 1.750000 1.850000 1.950000 2.050000 2.150000 2.250000 2.350000 2.450000 2.550000 
Z_COORDINATES 1 double
0.0
POINT_DATA 2600
VECTORS Vektorfeld double
0.997757 0.002243 0.0
0.993317 0.002198 0.0
0.990495 0.000624 0.0
0.991432 -0.001561 0.0
0.996934 -0.003940 0.0
1.007104 -0.006230 0.0
1.021499 -0.008164 0.0
1.039135 -0.009472 0.0
1.058526 -0.009920 0.0
1.077825 -0.009379 0.0
1.095097 -0.007893 0.0
1.108652 -0.005662 0.0
1.117301 -0.002986 0.0
1.120506 -0.000219 0.0
1.118377 0.002347 0.0
1.111399 0.004631 0.0
1.100251 0.006517 0.0
1.085813 0.007920 0.0
1.069101 0.008791 0.0
1.051194 0.009116 0.0
1.033154 0.008924 0.0
1.015934 0.008296 0.0
1.000273 0.007365 0.0
0.986592 0.006317 0.0
0.974888 0.005387 0.0
0.964662 0.004839 0.0
0.954900 0.004923 0.0
0.944169 0.005808 0.0
0.930827 0.007534 0.0
0.913297 0.009996 0.0
0.890330 0.012972 0.0
0.861172 0.016186 0.0
0.825639 0.019347 0.0
0.784103 0.022189 0.0
0.737432 0.024482 0.0
0.686913 0.026038 0.0
0.634165 0.026710 0.0
0.581062 0.026392 0.0
0.529655 0.025016 0.0
0.482109 0.022530 0.0
0.440830 0.018750 0.0
0.408877 0.013202 0.0
0.390058 0.005617 0.0
0.386529 -0.002087 0.0
0.395284 -0.006668 0.0
0.410830 -0.008879 0.0
0.429332 -0.009623 0.0
0.448440 -0.009486 0.0
0.466729 -0.008803 0.0
0.483282 -0.007749 0.0
0.497448 -0.006416 0.0
0.508744 -0.004880 0.0
0.516876 -0.003252 0.0
0.521813 -0.001684 0.0
0.523692 -0.000195 0.0
0.522079 0.001808 0.0
0.515750 0.004521 0.0
0.503569 0.007659 0.0
0.484992 0.010918 0.0
0.460237 0.013837 0.0
0.430623 0.015777 0.0
0.398747 0.016098 0.0
0.368053 0.014596 0.0
0.341640 0.011817 0.0
0.321031 0.008791 0.0
0.305920 0.006321 0.0
0.295052 0.004547 0.0
0.287365 0.003140 0.0
0.282440 0.001785 0.0
0.280175 0.000479 0.0
0.280230 -0.000533 0.0
0.281988 -0.001225 0.0
0.284819 -0.001606 0.0
0.288226 -0.001801 0.0
0.291893 -0.001867 0.0
0.295610 -0.001849 0.0
0.299258 -0.001799 0.0
0.302805 -0.001749 0.0
0.306250 -0.001696 0.0
0.309547 -0.001601 0.0
0.312572 -0.001424 0.0
0.315158 -0.001162 0.0
0.317175 -0.000854 0.0
0.318590 -0.000561 0.0
0.319516 -0.000364 0.0
0.320150 -0.000270 0.0
0.320682 -0.000261 0.0
0.321257 -0.000314 0.0
0.321973 -0.000402 0.0
0.322876 -0.000501 0.0
0.323972 -0.000595 0.0
0.325253 -0.000686 0.0
0.326735 -0.000796 0.0
0.328504 -0.000972 0.0
0.330695 -0.001219 0.0
0.333350 -0.001436 0.0
0.336343 -0.001557 0.0
0.339447 -0.001547 0.0
0.342368 -0.001374 0.0
0.344885 -0.001143 0.0
1.003053 0.001432 0.0
1.011913 -0.001411 0.0
1.025702 -0.006735 0.0
1.043762 -0.013199 0.0
1.065973 -0.020014 0.0
1.092159 -0.026513 0.0
1.121863 -0.031980 0.0
1.154213 -0.035642 0.0
1.187868 -0.036796 0.0
1.221088 -0.035022 0.0
1.252020 -0.030454 0.0
1.279092 -0.023728 0.0
1.301242 -0.015719 0.0
1.317888 -0.007336 0.0
1.328817 0.000664 0.0
1.334313 0.007797 0.0
1.335111 0.013703 0.0
1.332165 0.018118 0.0
1.326583 0.020888 0.0
1.319530 0.021978 0.0
1.312149 0.021483 0.0
1.305460 0.019646 0.0
1.300273 0.016864 0.0
1.297069 0.013702 0.0
1.295895 0.010878 0.0
1.296263 0.009207 0.0
1.297113 0.009467 0.0
1.296904 0.012203 0.0
1.293844 0.017542 0.0
1.286213 0.025148 0.0
1.272665 0.034335 0.0
1.252397 0.044248 0.0
1.225206 0.054009 0.0
1.191454 0.062815 0.0
1.151999 0.069981 0.0
1.108103 0.074954 0.0
1.061350 0.077295 0.0
1.013582 0.076677 0.0
0.966852 0.072869 0.0
0.923389 0.065685 0.0
0.885425 0.054839 0.0
0.854426 0.040064 0.0
0.829782 0.022219 0.0
0.809889 0.004733 0.0
0.796298 -0.008651 0.0
0.791161 -0.017306 0.0
0.793759 -0.022296 0.0
0.802637 -0.024798 0.0
0.816502 -0.025646 0.0
0.834378 -0.025335 0.0
0.855465 -0.024083 0.0
0.878877 -0.021922 0.0
0.903322 -0.018788 0.0
0.926790 -0.014553 0.0
0.946563 -0.008977 0.0
0.960464 -0.001698 0.0
0.967752 0.007068 0.0
0.968203 0.016842 0.0
0.961677 0.026838 0.0
0.948480 0.035869 0.0
0.929272 0.042567 0.0
0.904746 0.045710 0.0
0.875451 0.044973 0.0
0.842039 0.041266 0.0
0.805828 0.036161 0.0
0.769125 0.030765 0.0
0.734927 0.025168 0.0
0.706219 0.018914 0.0
0.685267 0.011888 0.0
0.673123 0.004785 0.0
0.669338 -0.001108 0.0
0.671845 -0.004915 0.0
0.678216 -0.007117 0.0
0.687017 -0.008497 0.0
0.697413 -0.009234 0.0
0.708641 -0.009427 0.0
0.719955 -0.009183 0.0
0.730635 -0.008592 0.0
0.740035 -0.007699 0.0
0.747658 -0.006518 0.0
0.753207 -0.005081 0.0
0.756607 -0.003493 0.0
0.758004 -0.001937 0.0
0.757724 -0.000615 0.0
0.756076 0.000413 0.0
0.753232 0.001163 0.0
0.749369 0.001637 0.0
0.744727 0.001854 0.0
0.739581 0.001860 0.0
0.734211 0.001703 0.0
0.728917 0.001398 0.0
0.724075 0.000882 0.0
0.720216 0.000012 0.0
0.717901 -0.001235 0.0
0.717316 -0.002561 0.0
0.718274 -0.003707 0.0
0.720538 -0.004543 0.0
0.723892 -0.005020 0.0
0.728126 -0.005056 0.0
0.731631 -0.003483 0.0
1.001966 -0.003587 0.0
1.009008 -0.012293 0.0
1.021844 -0.022479 0.0
1.039919 -0.033590 0.0
1.063066 -0.044980 0.0
1.091150 -0.055818 0.0
1.123789 -0.065018 0.0
1.160096 -0.071260 0.0
1.198490 -0.073227 0.0
1.236649 -0.069970 0.0
1.271993 -0.061782 0.0
1.302478 -0.049958 0.0
1.326951 -0.036113 0.0
1.345075 -0.021711 0.0
1.357108 -0.007923 0.0
1.363660 0.004335 0.0
1.365564 0.014462 0.0
1.363827 0.022041 0.0
1.359545 0.026829 0.0
1.353871 0.028764 0.0
1.347962 0.027988 0.0
1.342924 0.024867 0.0
1.339744 0.020012 0.0
1.339193 0.014309 0.0
1.341704 0.008934 0.0
1.347192 0.005295 0.0
1.354887 0.004833 0.0
1.363307 0.008626 0.0
1.370494 0.016992 0.0
1.374470 0.029353 0.0
1.373641 0.044507 0.0
1.366996 0.060989 0.0
1.354121 0.077335 0.0
1.335128 0.092233 0.0
1.310557 0.104589 0.0
1.281271 0.113528 0.0
1.248381 0.118365 0.0
1.213168 0.118587 0.0
1.177021 0.113836 0.0
1.141296 0.103904 0.0
1.107057 0.088823 0.0
1.074785 0.069351 0.0
1.044638 0.047723 0.0
1.016956 0.026803 0.0
0.991880 0.007945 0.0
0.970589 -0.007475 0.0
0.955040 -0.019176 0.0
0.945928 -0.027683 0.0
0.943170 -0.033869 0.0
0.946521 -0.038339 0.0
0.955658 -0.041303 0.0
0.970154 -0.042611 0.0
0.989456 -0.041846 0.0
1.012895 -0.038402 0.0
1.039644 -0.031651 0.0
1.068236 -0.021517 0.0
1.096214 -0.008380 0.0
1.120985 0.007068 0.0
1.140699 0.023424 0.0
1.154245 0.038935 0.0
1.160803 0.052150 0.0
1.159672 0.061783 0.0
1.150491 0.067377 0.0
1.133526 0.069240 0.0
1.109925 0.067999 0.0
1.081563 0.063993 0.0
1.050521 0.057180 0.0
1.018504 0.047627 0.0
0.986545 0.036086 0.0
0.955284 0.023991 0.0
0.926023 0.012732 0.0
0.901781 0.002981 0.0
0.885690 -0.005294 0.0
0.878124 -0.011557 0.0
0.877254 -0.015699 0.0
0.881268 -0.018204 0.0
0.888891 -0.019344 0.0
0.899071 -0.019290 0.0
0.910833 -0.018162 0.0
0.923247 -0.016091 0.0
0.935462 -0.013271 0.0
0.946751 -0.009991 0.0
0.956529 -0.006614 0.0
0.964362 -0.003491 0.0
0.970123 -0.000823 0.0
0.974108 0.001257 0.0
0.976822 0.002692 0.0
0.978742 0.003522 0.0
0.980235 0.003847 0.0
0.981538 0.003783 0.0
0.982733 0.003416 0.0
0.983687 0.002753 0.0
0.983922 0.001766 0.0
0.982672 0.000576 0.0
0.979401 -0.000516 0.0
0.974084 -0.001393 0.0
0.967092 -0.002130 0.0
0.959242 -0.002937 0.0
0.951925 -0.004055 0.0
0.948209 -0.004273 0.0
1.001591 -0.007144 0.0
1.007759 -0.021947 0.0
1.019771 -0.037674 0.0
1.037533 -0.054232 0.0
1.061202 -0.071154 0.0
1.090997 -0.087523 0.0
1.126895 -0.101851 0.0
1.168196 -0.112035 0.0
1.213103 -0.115753 0.0
1.258159 -0.110659 0.0
1.299206 -0.097484 0.0
1.333365 -0.078899 0.0
1.359465 -0.057745 0.0
1.377542 -0.036280 0.0
1.388289 -0.016134 0.0
1.392723 0.001560 0.0
1.392012 0.016043 0.0
1.387389 0.026821 0.0
1.380134 0.033584 0.0
1.371588 0.036230 0.0
1.363114 0.034906 0.0
1.356053 0.030047 0.0
1.351665 0.022401 0.0
1.351066 0.013070 0.0
1.355110 0.003618 0.0
1.364004 -0.003770 0.0
1.376858 -0.006651 0.0
1.391647 -0.003099 0.0
1.405689 0.007488 0.0
1.416414 0.024157 0.0
1.422000 0.044946 0.0
1.421547 0.067647 0.0
1.414918 0.090182 0.0
1.402493 0.110805 0.0
1.384937 0.128144 0.0
1.363040 0.141155 0.0
1.337614 0.149054 0.0
1.309448 0.151276 0.0
1.279273 0.147470 0.0
1.247697 0.137570 0.0
1.215133 0.121961 0.0
1.181835 0.101784 0.0
1.148198 0.079073 0.0
1.115115 0.056218 0.0
1.083838 0.034883 0.0
1.055235 0.015482 0.0
1.030201 -0.001551 0.0
1.010139 -0.016134 0.0
0.995971 -0.028492 0.0
0.987910 -0.039006 0.0
0.985884 -0.047746 0.0
0.989699 -0.054479 0.0
0.999214 -0.058795 0.0
1.014519 -0.060195 0.0
1.035987 -0.058076 0.0
1.064056 -0.051752 0.0
1.098628 -0.040697 0.0
1.138216 -0.024974 0.0
1.179374 -0.005405 0.0
1.217324 0.016267 0.0
1.248253 0.037331 0.0
1.270406 0.055580 0.0
1.282998 0.070169 0.0
1.285854 0.080557 0.0
1.279573 0.086564 0.0
1.265295 0.088068 0.0
1.244382 0.085059 0.0
1.218213 0.077934 0.0
1.188261 0.067691 0.0
1.156303 0.055604 0.0
1.124183 0.042499 0.0
1.092985 0.028654 0.0
1.063167 0.014943 0.0
1.036343 0.002595 0.0
1.015229 -0.007867 0.0
1.001126 -0.015946 0.0
0.993392 -0.021492 0.0
0.990818 -0.024748 0.0
0.992222 -0.025869 0.0
0.996461 -0.025038 0.0
1.002484 -0.022563 0.0
1.009412 -0.018914 0.0
1.016621 -0.014678 0.0
1.023800 -0.010440 0.0
1.030917 -0.006752 0.0
1.038116 -0.003996 0.0
1.045645 -0.002297 0.0
1.053795 -0.001560 0.0
1.062790 -0.001559 0.0
1.072667 -0.001991 0.0
1.083203 -0.002541 0.0
1.093878 -0.002920 0.0
1.103949 -0.002868 0.0
1.112632 -0.002222 0.0
1.119261 -0.001077 0.0
1.123447 0.000299 0.0
1.125162 0.001454 0.0
1.124716 0.001776 0.0
1.122701 0.000564 0.0
1.121722 -0.004197 0.0
1.001406 -0.010141 0.0
1.007009 -0.030720 0.0
1.018282 -0.052186 0.0
1.035573 -0.074773 0.0
1.059552 -0.098261 0.0
1.091103 -0.121762 0.0
1.130996 -0.143403 0.0
1.179169 -0.159957 0.0
1.234067 -0.167636 0.0
1.289913 -0.159678 0.0
1.338996 -0.138594 0.0
1.377328 -0.110280 0.0
1.404396 -0.079533 0.0
1.421239 -0.049412 0.0
1.429327 -0.021838 0.0
1.430209 0.001948 0.0
1.425350 0.021224 0.0
1.416158 0.035457 0.0
1.404113 0.044248 0.0
1.390797 0.047428 0.0
1.377853 0.045126 0.0
1.366924 0.037817 0.0
1.359600 0.026343 0.0
1.357413 0.011913 0.0
1.361767 -0.003623 0.0
1.373406 -0.017062 0.0
1.391612 -0.024420 0.0
1.413749 -0.022255 0.0
1.435589 -0.009239 0.0
1.452864 0.012884 0.0
1.463001 0.040497 0.0
1.465304 0.070246 0.0
1.460198 0.099318 0.0
1.448700 0.125593 0.0
1.432001 0.147611 0.0
1.411186 0.164400 0.0
1.387117 0.175305 0.0
1.360412 0.179896 0.0
1.331470 0.177967 0.0
1.300518 0.169602 0.0
1.267681 0.155331 0.0
1.233130 0.136262 0.0
1.197310 0.114051 0.0
1.161103 0.090531 0.0
1.125756 0.067195 0.0
1.092595 0.044935 0.0
1.062628 0.023997 0.0
1.036481 0.004527 0.0
1.014688 -0.013192 0.0
0.997411 -0.028968 0.0
0.984379 -0.042728 0.0
0.975466 -0.054399 0.0
0.971078 -0.064003 0.0
0.972343 -0.071556 0.0
0.980997 -0.076837 0.0
0.998919 -0.078980 0.0
1.027435 -0.076558 0.0
1.066797 -0.068063 0.0
1.115854 -0.052531 0.0
1.171525 -0.030227 0.0
1.227687 -0.003265 0.0
1.276589 0.025121 0.0
1.313703 0.050921 0.0
1.338489 0.072163 0.0
1.351563 0.088164 0.0
1.353853 0.098457 0.0
1.346522 0.102913 0.0
1.330908 0.101863 0.0
1.308546 0.096078 0.0
1.281171 0.086550 0.0
1.250588 0.074257 0.0
1.218507 0.060174 0.0
1.186507 0.045240 0.0
1.155686 0.029942 0.0
1.126576 0.015009 0.0
1.100268 0.001590 0.0
1.078504 -0.009530 0.0
1.062080 -0.017712 0.0
1.050450 -0.022679 0.0
1.042526 -0.024544 0.0
1.037128 -0.023682 0.0
1.033199 -0.020794 0.0
1.030015 -0.016823 0.0
1.027291 -0.012751 0.0
1.025189 -0.009456 0.0
1.024243 -0.007546 0.0
1.025223 -0.007257 0.0
1.028914 -0.008442 0.0
1.035947 -0.010704 0.0
1.046673 -0.013449 0.0
1.061048 -0.015994 0.0
1.078597 -0.017692 0.0
1.098464 -0.018034 0.0
1.119482 -0.016756 0.0
1.140253 -0.013942 0.0
1.159273 -0.010041 0.0
1.175199 -0.005848 0.0
1.187206 -0.002483 0.0
1.195239 -0.001196 0.0
1.200702 -0.006922 0.0
1.001220 -0.012766 0.0
1.006144 -0.038621 0.0
1.016278 -0.065693 0.0
1.032365 -0.094643 0.0
1.055705 -0.125710 0.0
1.088179 -0.158338 0.0
1.132016 -0.190557 0.0
1.188780 -0.217740 0.0
1.259043 -0.235013 0.0
1.331414 -0.220518 0.0
1.389767 -0.185190 0.0
1.430217 -0.142466 0.0
1.455261 -0.099458 0.0
1.468157 -0.059225 0.0
1.471436 -0.023393 0.0
1.467018 0.007040 0.0
1.456381 0.031627 0.0
1.440909 0.049717 0.0
1.422201 0.060741 0.0
1.402062 0.064392 0.0
1.382428 0.060740 0.0
1.365261 0.050298 0.0
1.352424 0.034024 0.0
1.345629 0.013215 0.0
1.346749 -0.010398 0.0
1.357602 -0.032778 0.0
1.378539 -0.047848 0.0
1.407332 -0.049756 0.0
1.439010 -0.035256 0.0
1.466589 -0.005952 0.0
1.484460 0.031324 0.0
1.491229 0.070345 0.0
1.488180 0.107374 0.0
1.477235 0.139979 0.0
1.460316 0.166844 0.0
1.438971 0.187326 0.0
1.414291 0.201127 0.0
1.386942 0.208127 0.0
1.357268 0.208352 0.0
1.325400 0.202037 0.0
1.291401 0.189733 0.0
1.255428 0.172384 0.0
1.217910 0.151269 0.0
1.179647 0.127784 0.0
1.141763 0.103172 0.0
1.105494 0.078387 0.0
1.071849 0.054157 0.0
1.041204 0.031159 0.0
1.013048 0.010125 0.0
0.986305 -0.008265 0.0
0.960104 -0.024197 0.0
0.934710 -0.038622 0.0
0.912152 -0.052834 0.0
0.895826 -0.067663 0.0
0.889469 -0.083029 0.0
0.895946 -0.097187 0.0
0.916454 -0.107375 0.0
0.950693 -0.110846 0.0
0.997407 -0.105519 0.0
1.054712 -0.090214 0.0
1.120070 -0.064798 0.0
1.189120 -0.031297 0.0
1.253607 0.005738 0.0
1.305245 0.040922 0.0
1.341607 0.069969 0.0
1.363910 0.092061 0.0
1.373604 0.106946 0.0
1.372216 0.114831 0.0
1.361386 0.116303 0.0
1.342866 0.112219 0.0
1.318463 0.103574 0.0
1.289967 0.091434 0.0
1.259082 0.076864 0.0
1.227360 0.060862 0.0
1.196158 0.044401 0.0
1.166439 0.028224 0.0
1.138704 0.013335 0.0
1.113496 0.001055 0.0
1.091315 -0.007635 0.0
1.071906 -0.012255 0.0
1.054322 -0.012989 0.0
1.037485 -0.010721 0.0
1.020658 -0.006883 0.0
1.003853 -0.003162 0.0
0.987946 -0.001036 0.0
0.974373 -0.001447 0.0
0.964720 -0.004682 0.0
0.960394 -0.010383 0.0
0.962270 -0.017673 0.0
0.970499 -0.025435 0.0
0.984638 -0.032521 0.0
1.003868 -0.037944 0.0
1.027185 -0.040966 0.0
1.053502 -0.041159 0.0
1.081647 -0.038456 0.0
1.110315 -0.033214 0.0
1.137998 -0.026285 0.0
1.162998 -0.019053 0.0
1.183605 -0.013266 0.0
1.197931 -0.014640 0.0
1.000948 -0.014933 0.0
1.004807 -0.045237 0.0
1.012927 -0.077332 0.0
1.026333 -0.112499 0.0
1.046933 -0.151794 0.0
1.077836 -0.195631 0.0
1.123599 -0.242865 0.0
1.189300 -0.287898 0.0
1.283152 -0.328970 0.0
1.378492 -0.294272 0.0
1.440669 -0.231967 0.0
1.473972 -0.169443 0.0
1.489479 -0.113031 0.0
1.493774 -0.062842 0.0
1.489818 -0.019100 0.0
1.478693 0.018290 0.0
1.460927 0.048782 0.0
1.437620 0.071341 0.0
1.410383 0.085062 0.0
1.381183 0.089409 0.0
1.352194 0.084345 0.0
1.325636 0.070419 0.0
1.303569 0.048807 0.0
1.287592 0.021203 0.0
1.279045 -0.010959 0.0
1.280664 -0.044689 0.0
1.295216 -0.071427 0.0
1.322959 -0.082713 0.0
1.361265 -0.072284 0.0
1.403262 -0.038501 0.0
1.437771 0.011494 0.0
1.457735 0.063442 0.0
1.464201 0.110860 0.0
1.460364 0.151273 0.0
1.448953 0.183881 0.0
1.431928 0.208658 0.0
1.410566 0.225838 0.0
1.385631 0.235700 0.0
1.357548 0.238536 0.0
1.326551 0.234718 0.0
1.292814 0.224787 0.0
1.256603 0.209513 0.0
1.218399 0.189861 0.0
1.178973 0.166881 0.0
1.139340 0.141592 0.0
1.100544 0.115033 0.0
1.063218 0.088484 0.0
1.027047 0.063647 0.0
0.990560 0.042281 0.0
0.951767 0.025114 0.0
0.909703 0.010689 0.0
0.866267 -0.004677 0.0
0.826903 -0.024858 0.0
0.798743 -0.051153 0.0
0.786676 -0.081115 0.0
0.791408 -0.110309 0.0
0.811111 -0.134465 0.0
0.843511 -0.150396 0.0
0.886797 -0.155969 0.0
0.939595 -0.149867 0.0
1.000596 -0.131506 0.0
1.068139 -0.101184 0.0
1.139752 -0.060474 0.0
1.209729 -0.014482 0.0
1.268947 0.029793 0.0
1.312352 0.066528 0.0
1.340656 0.094480 0.0
1.355532 0.113809 0.0
1.358676 0.125010 0.0
1.351846 0.128863 0.0
1.336830 0.126350 0.0
1.315405 0.118580 0.0
1.289287 0.106720 0.0
1.260084 0.091933 0.0
1.229235 0.075381 0.0
1.197934 0.058263 0.0
1.167026 0.041940 0.0
1.136826 0.027858 0.0
1.107027 0.017542 0.0
1.076939 0.012064 0.0
1.045892 0.011323 0.0
1.013781 0.013915 0.0
0.981580 0.017510 0.0
0.951240 0.019589 0.0
0.925092 0.018267 0.0
0.905187 0.012729 0.0
0.892811 0.003171 0.0
0.888397 -0.009497 0.0
0.891673 -0.023711 0.0
0.901784 -0.037737 0.0
0.917563 -0.050137 0.0
0.937866 -0.059860 0.0
0.961708 -0.066208 0.0
0.988254 -0.068779 0.0
1.016728 -0.067456 0.0
1.046286 -0.062440 0.0
1.075882 -0.054337 0.0
1.104129 -0.044248 0.0
1.129233 -0.033782 0.0
1.147660 -0.026876 0.0
1.000544 -0.016425 0.0
1.002777 -0.049837 0.0
1.007618 -0.085693 0.0
1.016121 -0.126046 0.0
1.030453 -0.173178 0.0
1.054726 -0.229423 0.0
1.096338 -0.296448 0.0
1.166783 -0.370461 0.0
1.293854 -0.467330 0.0
1.411807 -0.369205 0.0
1.453320 -0.260724 0.0
1.457572 -0.178242 0.0
1.451269 -0.113435 0.0
1.442187 -0.057651 0.0
1.430007 -0.008155 0.0
1.412424 0.036053 0.0
1.388119 0.073089 0.0
1.357380 0.101079 0.0
1.321384 0.118558 0.0
1.281875 0.124623 0.0
1.240960 0.119035 0.0
1.200909 0.102337 0.0
1.163926 0.075938 0.0
1.131787 0.042187 0.0
1.104939 0.003453 0.0
1.085170 -0.040951 0.0
1.078602 -0.083150 0.0
1.091841 -0.111970 0.0
1.127427 -0.116919 0.0
1.182234 -0.090671 0.0
1.245661 -0.034272 0.0
1.299428 0.035477 0.0
1.334188 0.097600 0.0
1.353816 0.148742 0.0
1.362264 0.189376 0.0
1.361971 0.220481 0.0
1.354416 0.242933 0.0
1.340555 0.257400 0.0
1.321073 0.264401 0.0
1.296515 0.264409 0.0
1.267394 0.257955 0.0
1.234266 0.245683 0.0
1.197814 0.228346 0.0
1.158871 0.206766 0.0
1.118314 0.181897 0.0
1.076675 0.155164 0.0
1.033406 0.128947 0.0
0.986393 0.106368 0.0
0.932995 0.089446 0.0
0.873178 0.076559 0.0
0.812351 0.062135 0.0
0.760005 0.039660 0.0
0.724233 0.005941 0.0
0.707673 -0.037232 0.0
0.708156 -0.083452 0.0
0.721724 -0.126272 0.0
0.745061 -0.161542 0.0
0.776272 -0.186930 0.0
0.814571 -0.201018 0.0
0.859736 -0.202781 0.0
0.911634 -0.191490 0.0
0.969826 -0.166934 0.0
1.033290 -0.129800 0.0
1.100213 -0.082057 0.0
1.166743 -0.028379 0.0
1.225054 0.022986 0.0
1.269208 0.065564 0.0
1.299026 0.098032 0.0
1.315891 0.120778 0.0
1.321324 0.134492 0.0
1.316937 0.140124 0.0
1.304361 0.138807 0.0
1.285188 0.131783 0.0
1.260906 0.120356 0.0
1.232805 0.105908 0.0
1.201863 0.089980 0.0
1.168615 0.074378 0.0
1.133121 0.061115 0.0
1.095172 0.052034 0.0
1.054782 0.048049 0.0
1.012718 0.048449 0.0
0.970758 0.050859 0.0
0.931471 0.052053 0.0
0.897626 0.049231 0.0
0.871494 0.040906 0.0
0.854356 0.027132 0.0
0.846389 0.009111 0.0
0.846782 -0.011416 0.0
0.854067 -0.032354 0.0
0.866672 -0.051810 0.0
0.883293 -0.068464 0.0
0.902947 -0.081490 0.0
0.924922 -0.090396 0.0
0.948695 -0.094911 0.0
0.973824 -0.094927 0.0
0.999822 -0.090524 0.0
1.026003 -0.082030 0.0
1.051326 -0.070125 0.0
1.074244 -0.055928 0.0
1.091607 -0.040520 0.0
1.000003 -0.016973 0.0
1.000022 -0.051541 0.0
1.000223 -0.089032 0.0
1.001229 -0.132216 0.0
1.004631 -0.184742 0.0
1.014190 -0.251691 0.0
1.038640 -0.340242 0.0
1.097326 -0.455796 0.0
1.254569 -0.666309 0.0
1.366679 -0.400289 0.0
1.330243 -0.234717 0.0
1.273141 -0.151399 0.0
1.234205 -0.095038 0.0
1.212494 -0.045256 0.0
1.197530 0.006593 0.0
1.179306 0.057112 0.0
1.154144 0.101497 0.0
1.120962 0.136592 0.0
1.079807 0.160195 0.0
1.031318 0.170985 0.0
0.976350 0.168557 0.0
0.915704 0.153512 0.0
0.850601 0.126850 0.0
0.784736 0.089278 0.0
0.726537 0.041410 0.0
0.685223 -0.017824 0.0
0.670706 -0.085193 0.0
0.689492 -0.141952 0.0
0.738631 -0.171662 0.0
0.811892 -0.163996 0.0
0.903262 -0.115744 0.0
1.002374 -0.035929 0.0
1.088232 0.048388 0.0
1.149953 0.116604 0.0
1.193164 0.169855 0.0
1.222166 0.211292 0.0
1.239145 0.242698 0.0
1.245505 0.265136 0.0
1.242355 0.279297 0.0
1.230697 0.285728 0.0
1.211484 0.284970 0.0
1.185651 0.277627 0.0
1.154116 0.264390 0.0
1.117670 0.246112 0.0
1.076637 0.224139 0.0
1.030291 0.200907 0.0
0.976686 0.180078 0.0
0.914190 0.164747 0.0
0.844770 0.153885 0.0
0.776040 0.140667 0.0
0.718736 0.116157 0.0
0.680978 0.075741 0.0
0.664614 0.021995 0.0
0.665818 -0.037931 0.0
0.678565 -0.095983 0.0
0.698202 -0.146947 0.0
0.722348 -0.188349 0.0
0.750126 -0.219113 0.0
0.781586 -0.238593 0.0
0.817307 -0.246093 0.0
0.858023 -0.240793 0.0
0.904228 -0.222028 0.0
0.955841 -0.189783 0.0
1.012037 -0.145193 0.0
1.071154 -0.090891 0.0
1.130024 -0.031682 0.0
1.182166 0.023936 0.0
1.222355 0.069652 0.0
1.250046 0.104602 0.0
1.266083 0.129197 0.0
1.271626 0.144263 0.0
1.267972 0.150899 0.0
1.256437 0.150398 0.0
1.238253 0.144206 0.0
1.214455 0.133956 0.0
1.185770 0.121559 0.0
1.152584 0.109232 0.0
1.115089 0.099251 0.0
1.073653 0.093283 0.0
1.029315 0.091529 0.0
0.984090 0.092258 0.0
0.940846 0.092255 0.0
0.902697 0.088093 0.0
0.872226 0.077507 0.0
0.850910 0.060078 0.0
0.838984 0.037024 0.0
0.835675 0.010495 0.0
0.839543 -0.017060 0.0
0.848858 -0.043309 0.0
0.862035 -0.066637 0.0
0.877852 -0.086076 0.0
0.895439 -0.101119 0.0
0.914223 -0.111527 0.0
0.933861 -0.117190 0.0
0.954134 -0.118051 0.0
0.974826 -0.114090 0.0
0.995565 -0.105384 0.0
1.015653 -0.092182 0.0
1.033918 -0.075054 0.0
1.048067 -0.052905 0.0
0.999377 -0.016353 0.0
0.996809 -0.049610 0.0
0.991446 -0.085802 0.0
0.982965 -0.127972 0.0
0.971151 -0.180573 0.0
0.956599 -0.250868 0.0
0.943085 -0.352002 0.0
0.946289 -0.505927 0.0
1.051907 -0.879040 0.0
1.059165 -0.198185 0.0
0.879669 -0.101100 0.0
0.747018 -0.084214 0.0
0.686264 -0.062532 0.0
0.667007 -0.036795 0.0
0.668597 0.011506 0.0
0.671201 0.067820 0.0
0.665702 0.121449 0.0
0.647133 0.168391 0.0
0.611717 0.204966 0.0
0.557731 0.228690 0.0
0.485990 0.237560 0.0
0.401675 0.229470 0.0
0.316767 0.200904 0.0
0.249060 0.148795 0.0
0.214928 0.074224 0.0
0.221978 -0.016373 0.0
0.262435 -0.112584 0.0
0.321633 -0.192544 0.0
0.393104 -0.241679 0.0
0.476868 -0.251004 0.0
0.574015 -0.217253 0.0
0.684592 -0.144109 0.0
0.802200 -0.046897 0.0
0.906610 0.045758 0.0
0.985768 0.118333 0.0
1.044817 0.174762 0.0
1.087839 0.219227 0.0
1.116655 0.253432 0.0
1.132561 0.278244 0.0
1.136741 0.294258 0.0
1.130353 0.302042 0.0
1.114496 0.302246 0.0
1.090096 0.295706 0.0
1.057644 0.283694 0.0
1.016793 0.268441 0.0
0.966327 0.253417 0.0
0.905516 0.241986 0.0
0.836956 0.233895 0.0
0.768491 0.222623 0.0
0.711006 0.198143 0.0
0.672863 0.154129 0.0
0.655964 0.092426 0.0
0.656699 0.020940 0.0
0.669199 -0.050581 0.0
0.688166 -0.115045 0.0
0.710168 -0.169523 0.0
0.733378 -0.213127 0.0
0.757093 -0.245828 0.0
0.781498 -0.267742 0.0
0.807488 -0.278656 0.0
0.836395 -0.277855 0.0
0.869553 -0.264328 0.0
0.907810 -0.237353 0.0
0.951190 -0.197198 0.0
0.998802 -0.145616 0.0
1.048938 -0.085963 0.0
1.098598 -0.023583 0.0
1.142376 0.033204 0.0
1.176240 0.079495 0.0
1.199661 0.114846 0.0
1.213014 0.139719 0.0
1.217053 0.155059 0.0
1.212678 0.162148 0.0
1.200770 0.162548 0.0
1.182066 0.158117 0.0
1.157097 0.151051 0.0
1.126265 0.143757 0.0
1.090102 0.138385 0.0
1.049670 0.136016 0.0
1.006900 0.135904 0.0
0.964583 0.135424 0.0
0.925908 0.131008 0.0
0.893714 0.119683 0.0
0.869834 0.100270 0.0
0.854849 0.073616 0.0
0.848276 0.041986 0.0
0.848950 0.008167 0.0
0.855331 -0.024980 0.0
0.865781 -0.055154 0.0
0.878860 -0.081048 0.0
0.893418 -0.102039 0.0
0.908618 -0.117941 0.0
0.923929 -0.128800 0.0
0.939098 -0.134724 0.0
0.954074 -0.135767 0.0
0.968891 -0.131883 0.0
0.983508 -0.122947 0.0
0.997631 -0.108831 0.0
1.010561 -0.089602 0.0
1.020802 -0.062747 0.0
0.998775 -0.014506 0.0
0.993716 -0.043830 0.0
0.982937 -0.075439 0.0
0.964965 -0.111882 0.0
0.937080 -0.156964 0.0
0.894299 -0.217143 0.0
0.826865 -0.304780 0.0
0.715847 -0.445335 0.0
0.323169 -0.761313 0.0
-0.484881 0.272127 0.0
-0.484881 0.000000 0.0
-0.030358 -0.020808 0.0
-0.041230 -0.063862 0.0
0.017632 -0.075069 0.0
0.106799 -0.040977 0.0
0.181267 0.043231 0.0
0.212378 0.120426 0.0
0.211004 0.189359 0.0
0.183315 0.247104 0.0
0.134573 0.289280 0.0
0.073551 0.309732 0.0
0.013219 0.301946 0.0
-0.032566 0.259122 0.0
-0.053552 0.179270 0.0
-0.044826 0.069154 0.0
-0.008783 -0.054397 0.0
0.045092 -0.168893 0.0
0.106998 -0.257339 0.0
0.173980 -0.315337 0.0
0.248984 -0.336114 0.0
0.335641 -0.315946 0.0
0.436110 -0.256462 0.0
0.549771 -0.165813 0.0
0.670169 -0.060135 0.0
0.778797 0.036440 0.0
0.863526 0.112877 0.0
0.928092 0.173524 0.0
0.976129 0.222282 0.0
1.009164 0.260454 0.0
1.028337 0.288695 0.0
1.034716 0.307613 0.0
1.029254 0.317994 0.0
1.012592 0.321020 0.0
0.984791 0.318633 0.0
0.945333 0.313811 0.0
0.894120 0.309726 0.0
0.833719 0.306889 0.0
0.771258 0.300011 0.0
0.717145 0.279085 0.0
0.680273 0.236036 0.0
0.663739 0.170914 0.0
0.664893 0.091385 0.0
0.678485 0.007655 0.0
0.699094 -0.070405 0.0
0.722543 -0.137638 0.0
0.746268 -0.192658 0.0
0.768697 -0.235631 0.0
0.789055 -0.267397 0.0
0.807366 -0.288889 0.0
0.824495 -0.300627 0.0
0.842048 -0.302345 0.0
0.862034 -0.292981 0.0
0.886270 -0.271193 0.0
0.915791 -0.236258 0.0
0.950531 -0.188909 0.0
0.989395 -0.131670 0.0
1.030502 -0.068644 0.0
1.070693 -0.005706 0.0
1.105644 0.049589 0.0
1.132567 0.094408 0.0
1.150864 0.128509 0.0
1.160598 0.152496 0.0
1.162145 0.167538 0.0
1.155974 0.175237 0.0
1.142522 0.177585 0.0
1.122188 0.176885 0.0
1.095493 0.175450 0.0
1.063371 0.174978 0.0
1.027485 0.175740 0.0
0.990323 0.176112 0.0
0.954898 0.172958 0.0
0.924118 0.162929 0.0
0.900108 0.143965 0.0
0.883866 0.116111 0.0
0.875332 0.081293 0.0
0.873739 0.042476 0.0
0.877926 0.002815 0.0
0.886473 -0.034555 0.0
0.897894 -0.067451 0.0
0.910863 -0.094799 0.0
0.924269 -0.116252 0.0
0.937268 -0.131927 0.0
0.949322 -0.142180 0.0
0.960210 -0.147401 0.0
0.969995 -0.147850 0.0
0.978933 -0.143554 0.0
0.987322 -0.134282 0.0
0.995319 -0.119616 0.0
1.002767 -0.099195 0.0
1.008872 -0.069498 0.0
0.998327 -0.011609 0.0
0.991431 -0.034772 0.0
0.976721 -0.059007 0.0
0.952037 -0.085658 0.0
0.913205 -0.116472 0.0
0.852172 -0.153821 0.0
0.752110 -0.200607 0.0
0.572811 -0.259190 0.0
0.228088 -0.313132 0.0
0.000000 0.272127 0.0
-0.000000 -0.000000 0.0
0.000000 0.000000 0.0
-0.040751 -0.041674 0.0
-0.084051 -0.111896 0.0
-0.085587 -0.091781 0.0
-0.074668 0.008648 0.0
-0.063061 0.112291 0.0
-0.068252 0.204059 0.0
-0.088592 0.280432 0.0
-0.118583 0.334685 0.0
-0.150395 0.357161 0.0
-0.174833 0.339286 0.0
-0.183205 0.275939 0.0
-0.168794 0.169028 0.0
-0.128938 0.030814 0.0
-0.074685 -0.106353 0.0
-0.018726 -0.226772 0.0
0.035488 -0.315581 0.0
0.087834 -0.376425 0.0
0.142919 -0.405115 0.0
0.207058 -0.397741 0.0
0.285358 -0.353437 0.0
0.379344 -0.276484 0.0
0.486071 -0.176588 0.0
0.597984 -0.067648 0.0
0.699316 0.030904 0.0
0.779684 0.110563 0.0
0.841469 0.175421 0.0
0.887325 0.228424 0.0
0.918371 0.270505 0.0
0.935406 0.302389 0.0
0.939000 0.325087 0.0
0.929379 0.340210 0.0
0.906461 0.350162 0.0
0.870539 0.357660 0.0
0.823932 0.363699 0.0
0.772674 0.364576 0.0
0.726115 0.351344 0.0
0.693308 0.314673 0.0
0.678732 0.251897 0.0
0.681274 0.169044 0.0
0.696723 0.076651 0.0
0.720165 -0.014644 0.0
0.747036 -0.095585 0.0
0.774050 -0.162922 0.0
0.799173 -0.216222 0.0
0.821016 -0.256340 0.0
0.838753 -0.284783 0.0
0.852190 -0.303251 0.0
0.861920 -0.313124 0.0
0.869446 -0.314928 0.0
0.877064 -0.308002 0.0
0.887379 -0.290723 0.0
0.902539 -0.261409 0.0
0.923561 -0.219520 0.0
0.950111 -0.166472 0.0
0.980776 -0.105613 0.0
1.013464 -0.041617 0.0
1.044866 0.019148 0.0
1.071592 0.071201 0.0
1.091889 0.113123 0.0
1.105073 0.144964 0.0
1.110955 0.167640 0.0
1.109579 0.182681 0.0
1.101114 0.192059 0.0
1.085892 0.197966 0.0
1.064600 0.202357 0.0
1.038529 0.206265 0.0
1.009722 0.209146 0.0
0.980825 0.208765 0.0
0.954603 0.201952 0.0
0.933310 0.186009 0.0
0.918260 0.159946 0.0
0.909782 0.124850 0.0
0.907501 0.083369 0.0
0.910645 0.038850 0.0
0.918193 -0.005296 0.0
0.928854 -0.045651 0.0
0.941251 -0.080172 0.0
0.954156 -0.107951 0.0
0.966513 -0.128863 0.0
0.977499 -0.143302 0.0
0.986576 -0.151937 0.0
0.993531 -0.155486 0.0
0.998485 -0.154504 0.0
1.001854 -0.149207 0.0
1.004234 -0.139397 0.0
1.006221 -0.124485 0.0
1.008220 -0.103773 0.0
1.010121 -0.072926 0.0
0.998119 -0.008055 0.0
0.990406 -0.023716 0.0
0.974096 -0.039042 0.0
0.947139 -0.053981 0.0
0.905831 -0.068009 0.0
0.844051 -0.079470 0.0
0.752377 -0.083221 0.0
0.619572 -0.064472 0.0
0.445350 0.016760 0.0
0.174606 0.156321 0.0
0.000000 0.000000 0.0
-0.000000 -0.000000 0.0
0.000000 0.000000 0.0
-0.052980 -0.054674 0.0
-0.117915 -0.080839 0.0
-0.141801 0.010673 0.0
-0.160153 0.117011 0.0
-0.171649 0.216026 0.0
-0.181967 0.299122 0.0
-0.191749 0.355768 0.0
-0.197323 0.373465 0.0
-0.192343 0.342439 0.0
-0.170210 0.259026 0.0
-0.123033 0.124354 0.0
-0.055793 -0.031608 0.0
0.010634 -0.164610 0.0
0.063052 -0.276892 0.0
0.103066 -0.359688 0.0
0.135352 -0.416950 0.0
0.163589 -0.447911 0.0
0.194837 -0.450331 0.0
0.237570 -0.421881 0.0
0.297914 -0.362372 0.0
0.376597 -0.276109 0.0
0.468708 -0.172151 0.0
0.565435 -0.062652 0.0
0.652955 0.036232 0.0
0.722947 0.117975 0.0
0.776764 0.186198 0.0
0.815752 0.242697 0.0
0.840426 0.288489 0.0
0.850973 0.324847 0.0
0.847449 0.353594 0.0
0.830302 0.376844 0.0
0.801500 0.395701 0.0
0.765886 0.407879 0.0
0.731321 0.406218 0.0
0.706333 0.381249 0.0
0.696370 0.327538 0.0
0.701947 0.248031 0.0
0.720132 0.152182 0.0
0.747103 0.051094 0.0
0.778462 -0.043888 0.0
0.810134 -0.124884 0.0
0.839596 -0.190098 0.0
0.865205 -0.239778 0.0
0.885858 -0.275280 0.0
0.900874 -0.298596 0.0
0.910003 -0.312004 0.0
0.913564 -0.317662 0.0
0.912681 -0.317033 0.0
0.909461 -0.310294 0.0
0.906815 -0.296100 0.0
0.907791 -0.272169 0.0
0.914635 -0.236627 0.0
0.928114 -0.189394 0.0
0.947481 -0.132722 0.0
0.970964 -0.070680 0.0
0.996125 -0.008352 0.0
1.019899 0.048200 0.0
1.039742 0.095984 0.0