# vtk DataFile Version 3.0
Scalar Field
ASCII
DATASET RECTILINEAR_GRID
DIMENSIONS 100 26 1
X_COORDINATES 100 double
0.050000 0.150000 0.250000 0.350000 0.450000 0.550000 0.650000 0.750000 0.850000 0.950000 1.050000 1.150000 1.250000 1.350000 1.450000 1.550000 1.650000 1.750000 1.850000 1.950000 2.050000 2.150000 2.250000 2.350000 2.450000 2.550000 2.650000 2.750000 2.850000 2.950000 3.050000 3.150000 3.250000 3.350000 3.450000 3.550000 3.650000 3.750000 3.850000 3.950000 4.050000 4.150000 4.250000 4.350000 4.450000 4.550000 4.650000 4.750000 4.850000 4.950000 5.050000 5.150000 5.250000 5.350000 5.450000 5.550000 5.650000 5.750000 5.850000 5.950000 6.050000 6.150000 6.250000 6.350000 6.450000 6.550000 6.650000 6.750000 6.850000 6.950000 7.050000 7.150000 7.250000 7.350000 7.450000 7.550000 7.650000 7.750000 7.850000 7.950000 8.050000 8.150000 8.250000 8.350000 8.450000 8.550000 8.650000 8.750000 8.850000 8.950000 9.050000 9.150000 9.250000 9.350000 9.450000 9.550000 9.650000 9.750000 9.850000 9.950000 
Y_COORDINATES 26 double
0.050000 0.150000 0.250000 0.350000 0.450000 0.550000 0.650000 0.750000 0.850000 0.950000 1.050000 1.150000 1.250000 1.350000 1.450000 1.550000 1.650000 1.750000 1.850000 1.950000 2.050000 2.150000 2.250000 2.350000 2.450000 2.550000 
Z_COORDINATES 1 double
0.0
POINT_DATA 2600
SCALARS Skalarfeld double 1
LOOKUP_TABLE default
0.158423
0.154415
0.145869
0.132385
0.113745
0.089882
0.060975
0.027579
-0.009252
-0.047920
-0.086408
-0.122585
-0.154559
-0.180917
-0.200822
-0.214003
-0.220672
-0.221368
-0.216955
-0.208498
-0.197155
-0.184110
-0.170517
-0.157392
-0.145606
-0.135814
-0.128321
-0.122991
-0.119233
-0.116130
-0.112624
-0.107649
-0.100655
-0.091495
-0.080394
-0.067842
-0.054464
-0.040912
-0.027768
-0.015493
-0.004394
0.005382
0.013843
0.021129
0.027486
0.033224
0.038672
0.044078
0.049743
0.055721
0.061684
0.067148
0.071489
0.074021
0.074102
0.071299
0.065588
0.057521
0.048237
0.039225
0.031872
0.027264
0.025727
0.026824
0.029799
0.033756
0.037837
0.041367
0.043948
0.045481
0.046142
0.046300
0.046387
0.046757
0.047577
0.048777
0.050410
0.052235
0.054154
0.056210
0.058509
0.061163
0.064220
0.067621
0.071167
0.074522
0.077251
0.078883
0.079011
0.077383
0.073994
0.069125
0.063315
0.057229
0.051431
0.046114
0.041011
0.035071
0.026565
0.004470
0.162013
0.158862
0.150532
0.136974
0.118010
0.093520
0.063611
0.028805
-0.009790
-0.050403
-0.090723
-0.128358
-0.161285
-0.188081
-0.207973
-0.220769
-0.226748
-0.226534
-0.221049
-0.211419
-0.198863
-0.184628
-0.169929
-0.155903
-0.143552
-0.133608
-0.126412
-0.121781
-0.118991
-0.116904
-0.114295
-0.109995
-0.103369
-0.094294
-0.083061
-0.070238
-0.056517
-0.042602
-0.029108
-0.016514
-0.005136
0.004879
0.013540
0.020991
0.027482
0.033331
0.038882
0.044472
0.050181
0.055928
0.061501
0.066487
0.070331
0.072410
0.072132
0.069072
0.063160
0.054867
0.045257
0.035845
0.028270
0.023601
0.022078
0.023314
0.026539
0.030815
0.035246
0.039132
0.042064
0.043942
0.044948
0.045452
0.045873
0.046541
0.047610
0.049082
0.050637
0.052250
0.053911
0.055699
0.057734
0.060135
0.062956
0.066138
0.069483
0.072657
0.075232
0.076759
0.076849
0.075271
0.072022
0.067362
0.061794
0.055963
0.050483
0.045743
0.041596
0.037166
0.031243
0.017899
0.171329
0.168387
0.160142
0.146416
0.126887
0.101242
0.069379
0.031686
-0.010656
-0.055504
-0.099805
-0.140538
-0.175413
-0.203041
-0.222816
-0.234744
-0.239292
-0.237152
-0.229407
-0.217309
-0.202204
-0.185476
-0.168509
-0.152632
-0.139078
-0.128805
-0.122269
-0.119214
-0.118619
-0.118908
-0.118394
-0.115597
-0.109756
-0.100848
-0.089323
-0.075911
-0.061444
-0.046725
-0.032430
-0.019074
-0.006985
0.003684
0.012940
0.020925
0.027875
0.034085
0.039861
0.045473
0.051076
0.056537
0.061634
0.065988
0.069114
0.070480
0.069553
0.065909
0.059415
0.050432
0.039942
0.029477
0.020819
0.015510
0.013922
0.015377
0.019099
0.024089
0.029386
0.034241
0.038201
0.041135
0.043181
0.044643
0.045856
0.047067
0.048378
0.049761
0.051100
0.052341
0.053570
0.054901
0.056465
0.058407
0.060797
0.063593
0.066605
0.069503
0.071871
0.073275
0.073348
0.071873
0.068847
0.064516
0.059359
0.054009
0.049118
0.045177
0.042324
0.040444
0.038707
0.036298
0.185972
0.183112
0.174938
0.161061
0.140869
0.113657
0.078880
0.036579
-0.012051
-0.064263
-0.115321
-0.160994
-0.198696
-0.227285
-0.246546
-0.256847
-0.258932
-0.253639
-0.242288
-0.226290
-0.207163
-0.186485
-0.165855
-0.146920
-0.131355
-0.120553
-0.115239
-0.115052
-0.118425
-0.122903
-0.125864
-0.125372
-0.120602
-0.111746
-0.099555
-0.085052
-0.069297
-0.053243
-0.037657
-0.023092
-0.009896
0.001772
0.011916
0.020662
0.028227
0.034876
0.040885
0.046497
0.051880
0.057063
0.061647
0.065280
0.067558
0.068071
0.066376
0.062066
0.054949
0.045260
0.033830
0.022103
0.011914
0.005019
0.002947
0.004491
0.008769
0.014684
0.021178
0.027410
0.032845
0.037268
0.040727
0.043423
0.045596
0.047433
0.049025
0.050377
0.051451
0.052246
0.052836
0.053423
0.054329
0.055630
0.057400
0.059653
0.062223
0.064794
0.066962
0.068306
0.068473
0.067252
0.064635
0.060848
0.056342
0.051737
0.047713
0.044880
0.043637
0.044214
0.046721
0.053511
0.205783
0.203050
0.195131
0.181378
0.160738
0.131840
0.093287
0.044289
-0.014219
-0.078793
-0.140547
-0.193137
-0.234108
-0.263213
-0.281036
-0.288520
-0.286664
-0.276738
-0.260179
-0.238583
-0.213696
-0.187347
-0.161392
-0.137803
-0.119085
-0.107439
-0.104177
-0.108824
-0.118875
-0.130311
-0.138736
-0.141361
-0.137723
-0.128448
-0.114842
-0.098414
-0.080572
-0.062477
-0.044999
-0.028734
-0.014037
-0.001062
0.010193
0.019856
0.028132
0.035277
0.041546
0.047144
0.052166
0.056844
0.060795
0.063544
0.064777
0.064283
0.061783
0.056951
0.049559
0.039691
0.027945
0.015528
0.004146
-0.004356
-0.008441
-0.007139
-0.002583
0.004095
0.011741
0.019394
0.026395
0.032407
0.037356
0.041336
0.044506
0.047009
0.048932
0.050304
0.051126
0.051432
0.051343
0.051091
0.050955
0.051400
0.052411
0.054035
0.056133
0.058403
0.060447
0.061856
0.062282
0.061510
0.059517
0.056497
0.052865
0.049215
0.046243
0.044644
0.045020
0.047844
0.053580
0.066955
0.230526
0.228068
0.220834
0.207875
0.187549
0.157467
0.114674
0.056486
-0.017390
-0.103563
-0.181633
-0.242442
-0.285754
-0.313778
-0.328421
-0.331256
-0.323736
-0.307415
-0.283767
-0.254594
-0.221924
-0.187927
-0.154821
-0.124628
-0.101038
-0.087784
-0.087391
-0.099281
-0.119564
-0.141859
-0.158933
-0.165634
-0.162906
-0.152338
-0.136185
-0.116704
-0.095777
-0.074808
-0.054769
-0.036279
-0.019680
-0.005108
0.007463
0.018172
0.027237
0.034915
0.041443
0.046968
0.051484
0.054813
0.057637
0.059149
0.058947
0.057224
0.054001
0.049067
0.042124
0.033041
0.022106
0.010177
-0.001336
-0.010735
-0.016538
-0.016797
-0.012591
-0.005749
0.002546
0.011223
0.019485
0.026850
0.033106
0.038232
0.042304
0.045420
0.047651
0.049027
0.049562
0.049312
0.048446
0.047263
0.046152
0.045496
0.045677
0.046662
0.048328
0.050381
0.052430
0.054065
0.054939
0.054821
0.053661
0.051609
0.049034
0.046487
0.044651
0.044265
0.046045
0.050647
0.058677
0.075970
0.259689
0.257750
0.251906
0.240933
0.222540
0.192963
0.146631
0.076699
-0.021628
-0.148625
-0.249496
-0.315924
-0.357168
-0.380744
-0.389724
-0.385740
-0.371081
-0.346624
-0.313920
-0.275062
-0.232466
-0.188762
-0.146693
-0.108867
-0.077918
-0.061219
-0.063606
-0.084171
-0.117241
-0.153906
-0.183815
-0.197560
-0.195354
-0.182585
-0.162815
-0.139308
-0.114496
-0.090022
-0.066928
-0.045828
-0.027036
-0.010652
0.003377
0.015214
0.025097
0.033283
0.039971
0.045209
0.048852
0.050663
0.050501
0.049826
0.047816
0.044966
0.041555
0.037328
0.031816
0.024641
0.015763
0.005655
-0.004649
-0.013705
-0.019990
-0.022278
-0.019280
-0.013059
-0.004893
0.004088
0.012985
0.021180
0.028323
0.034270
0.039004
0.042562
0.044978
0.046261
0.046423
0.045539
0.043827
0.041668
0.039553
0.037942
0.037270
0.037651
0.038965
0.040918
0.043120
0.045158
0.046668
0.047398
0.047255
0.046338
0.044952
0.043590
0.042899
0.043614
0.046496
0.052287
0.061690
0.080833
0.292319
0.291213
0.287704
0.280458
0.266741
0.241398
0.195137
0.112689
-0.026723
-0.237519
-0.360278
-0.416462
-0.444896
-0.459683
-0.461256
-0.450550
-0.428245
-0.394558
-0.351369
-0.301257
-0.247133
-0.192223
-0.140095
-0.094677
-0.057073
-0.033833
-0.037285
-0.064882
-0.108554
-0.157686
-0.200633
-0.226891
-0.227237
-0.212792
-0.189685
-0.162455
-0.134072
-0.106366
-0.080420
-0.056845
-0.035942
-0.017805
-0.002375
0.010516
0.021101
0.029602
0.036105
0.040448
0.042298
0.041494
0.038439
0.034080
0.030294
0.027143
0.024554
0.022030
0.018915
0.014623
0.008833
0.001655
-0.006278
-0.013864
-0.019785
-0.022920
-0.021862
-0.016748
-0.009458
-0.000975
0.007788
0.016126
0.023575
0.029873
0.034901
0.038619
0.041005
0.042034
0.041701
0.040101
0.037501
0.034370
0.031293
0.028823
0.027366
0.027217
0.028277
0.030264
0.032781
0.035397
0.037724
0.039470
0.040494
0.040830
0.040711
0.040559
0.040958
0.042608
0.046265
0.052687
0.062598
0.081838
0.326890
0.326935
0.326764
0.325284
0.319997
0.305368
0.268900
0.182152
-0.027023
-0.427631
-0.525940
-0.525738
-0.526588
-0.532416
-0.531157
-0.518312
-0.490296
-0.448318
-0.395330
-0.334654
-0.269721
-0.204380
-0.142977
-0.090844
-0.053833
-0.028442
-0.031690
-0.060135
-0.104144
-0.154410
-0.200865
-0.233790
-0.245107
-0.231443
-0.207594
-0.179124
-0.149345
-0.120187
-0.092776
-0.067769
-0.045533
-0.026227
-0.009859
0.003673
0.014519
0.022741
0.028153
0.030330
0.029000
0.024603
0.018455
0.012159
0.007618
0.005270
0.004507
0.004543
0.004551
0.003791
0.001732
-0.001817
-0.006590
-0.011846
-0.016508
-0.019446
-0.019738
-0.016423
-0.010620
-0.003326
0.004579
0.012367
0.019497
0.025610
0.030492
0.034018
0.036098
0.036661
0.035685
0.033275
0.029750
0.025651
0.021645
0.018359
0.016228
0.015623
0.016541
0.018704
0.021700
0.025069
0.028376
0.031280
0.033578
0.035234
0.036403
0.037424
0.038810
0.041198
0.045305
0.051864
0.061576
0.079684
0.361303
0.362705
0.366561
0.372462
0.379216
0.383409
0.374872
0.320940
0.075022
-0.778873
-0.713746
-0.587560
-0.563127
-0.567535
-0.577650
-0.570544
-0.541777
-0.496478
-0.439071
-0.373618
-0.304088
-0.235732
-0.173581
-0.122703
-0.087080
-0.070995
-0.072568
-0.090209
-0.120119
-0.156641
-0.192778
-0.220869
-0.234912
-0.229879
-0.208999
-0.182945
-0.155101
-0.127351
-0.100834
-0.076295
-0.054235
-0.034974
-0.018682
-0.005424
0.004738
0.011577
0.014607
0.013378
0.008143
0.000327
-0.007895
-0.014621
-0.018286
-0.018709
-0.016780
-0.013514
-0.009898
-0.006793
-0.004872
-0.004534
-0.005803
-0.008269
-0.011131
-0.013411
-0.014261
-0.012703
-0.008504
-0.002812
0.003704
0.010371
0.016627
0.022051
0.026349
0.029315
0.030792
0.030657
0.028865
0.025533
0.021021
0.015931
0.010997
0.006913
0.004175
0.003185
0.004072
0.006556
0.010197
0.014482
0.018915
0.023085
0.026720
0.029709
0.032127
0.034231
0.036452
0.039357
0.043604
0.049878
0.058832
0.074976
0.393102
0.395821
0.403641
0.417041
0.436812
0.463893
0.498541
0.536306
0.614996
-0.081938
-0.640088
-0.566429
-0.562025
-0.565629
-0.581218
-0.583897
-0.560126
-0.520018
-0.468425
-0.409934
-0.348295
-0.291293
-0.241854
-0.203820
-0.178488
-0.166392
-0.156506
-0.153166
-0.158444
-0.170325
-0.185485
-0.199200
-0.206689
-0.204993
-0.192222
-0.171517
-0.148575
-0.125044
-0.101957
-0.080106
-0.060141
-0.042580
-0.027820
-0.016171
-0.007992
-0.003830
-0.004333
-0.009644
-0.018651
-0.028996
-0.038074
-0.044108
-0.045689
-0.043215
-0.037828
-0.030776
-0.023220
-0.016137
-0.010281
-0.006160
-0.003982
-0.003585
-0.004417
-0.005652
-0.006406
-0.005916
-0.003569
0.000318
0.005148
0.010326
0.015309
0.019649
0.022996
0.025077
0.025673
0.024612
0.021828
0.017445
0.011857
0.005718
-0.000178
-0.005070
-0.008388
-0.009698
-0.008738
-0.005796
-0.001360
0.003984
0.009657
0.015164
0.020150
0.024431
0.028003
0.031044
0.033908
0.037089
0.041179
0.046806
0.054571
0.068203
0.419908
0.423614
0.434385
0.453305
0.482475
0.525597
0.589194
0.684533
0.817856
0.856514
0.000000
-0.562174
-0.557919
-0.551091
-0.554190
-0.554664
-0.538823
-0.509020
-0.471126
-0.430797
-0.393882
-0.363379
-0.338728
-0.317755
-0.299358
-0.279333
-0.254419
-0.229158
-0.207446
-0.191587
-0.181712
-0.176286
-0.172475
-0.167371
-0.159207
-0.146349
-0.129873
-0.112434
-0.094734
-0.077495
-0.061451
-0.047294
-0.035638
-0.027062
-0.022238
-0.021985
-0.026910
-0.036567
-0.048933
-0.061004
-0.070085
-0.074596
-0.073169
-0.066980
-0.057483
-0.046205
-0.034507
-0.023480
-0.013924
-0.006374
-0.001101
0.001917
0.003047
0.002959
0.002466
0.002282
0.003245
0.005487
0.008603
0.012153
0.015658
0.018675
0.020825
0.021784
0.021281
0.019105
0.015171
0.009612
0.002852
-0.004412
-0.011323
-0.017048
-0.020936
-0.022509
-0.021388
-0.017880
-0.012534
-0.006028
0.000953
0.007816
0.014115
0.019590
0.024165
0.027951
0.031229
0.034428
0.038076
0.042745
0.048984
0.059736
0.439944
0.444110
0.456195
0.477331
0.509565
0.556012
0.620442
0.704512
0.802155
0.895172
0.814270
0.000000
-0.542313
-0.526706
-0.511666
-0.501072
-0.488338
-0.470468
-0.452634
-0.440402
-0.436720
-0.440007
-0.443858
-0.438453
-0.420930
-0.386777
-0.344222
-0.296866
-0.250974
-0.210611
-0.178015
-0.153884
-0.137323
-0.126175
-0.117879
-0.110266
-0.101003
-0.090351
-0.079037
-0.067610
-0.056798
-0.047390
-0.040172
-0.035975
-0.035771
-0.040543
-0.050626
-0.064818
-0.080285
-0.093643
-0.102260
-0.104394
-0.099266
-0.088745
-0.074693
-0.058954
-0.043100
-0.028327
-0.015451
-0.004972
0.002866
0.008057
0.010870
0.011854
0.011756
0.011344
0.011251
0.012053
0.013598
0.015576
0.017587
0.019211
0.020059
0.019774
0.018046
0.014636
0.009446
0.002622
-0.005385
-0.013831
-0.021801
-0.028373
-0.032803
-0.034599
-0.033258
-0.029120
-0.022808
-0.015105
-0.006814
0.001359
0.008871
0.015385
0.020763
0.025057
0.028493
0.031442
0.034376
0.037814
0.042258
0.049871
0.452384
0.456464
0.468214
0.488418
0.518317
0.559429
0.613107
0.678746
0.744335
0.769607
0.733367
0.622178
0.000000
-0.498183
-0.469660
-0.444119
-0.430970
-0.423093
-0.424600
-0.440427
-0.469784
-0.505369
-0.535042
-0.544254
-0.518357
-0.469567
-0.408100
-0.341474
-0.276399
-0.217713
-0.168372
-0.129849
-0.102303
-0.084556
-0.074266
-0.068572
-0.064893
-0.060628
-0.055692
-0.050392
-0.045374
-0.041457
-0.039562
-0.040760
-0.046271
-0.057065
-0.072967
-0.091930
-0.110435
-0.124860
-0.132725
-0.131531
-0.122266
-0.107086
-0.088352
-0.068237
-0.048500
-0.030403
-0.014742
-0.001938
0.007851
0.014670
0.018767
0.020618
0.020901
0.020372
0.019707
0.019355
0.019594
0.020207
0.020863
0.021177
0.020759
0.019233
0.016262
0.011589
0.005117
-0.002994
-0.012261
-0.021897
-0.030921
-0.038326
-0.043268
-0.045222
-0.043631
-0.038860
-0.031607
-0.022761
-0.013246
-0.003891
0.004665
0.012006
0.017939
0.022473
0.025793
0.028222
0.030187
0.032159
0.034594
0.038876
0.457387
0.460956
0.471152
0.488411
0.513303
0.546129
0.585800
0.627555
0.658699
0.653133
0.592961
0.510989
0.351923
0.000000
-0.429512
-0.389363
-0.381616
-0.379758
-0.394033
-0.430500
-0.487142
-0.550938
-0.599378
-0.611580
-0.574945
-0.513798
-0.438455
-0.358180
-0.280366
-0.210125
-0.150487
-0.102911
-0.067740
-0.044359
-0.031137
-0.025510
-0.024590
-0.025499
-0.026062
-0.026385
-0.026981
-0.028690
-0.032561
-0.039880
-0.051986
-0.069587
-0.091775
-0.115644
-0.137097
-0.152297
-0.158781
-0.153947
-0.140254
-0.120449
-0.097329
-0.073335
-0.050342
-0.029616
-0.011883
0.002545
0.013634
0.021521
0.026479
0.028946
0.029532
0.028949
0.027857
0.026800
0.026083
0.025630
0.025182
0.024386
0.022856
0.020206
0.016082
0.010222
0.002536
-0.006794
-0.017251
-0.028004
-0.038008
-0.046175
-0.051569
-0.053608
-0.051768
-0.046429
-0.038350
-0.028515
-0.017966
-0.007645
0.001708
0.009605
0.015808
0.020295
0.023218
0.024871
0.025641
0.025954
0.026220
0.027033
0.455892
0.458738
0.466776
0.480027
0.498325
0.520827
0.545089
0.565509
0.571242
0.544673
0.468301
0.333641
0.192856
-0.207525
-0.413245
-0.354471
-0.341713
-0.339907
-0.363647
-0.415875
-0.489816
-0.567950
-0.624285
-0.624707
-0.584397
-0.517245
-0.435641
-0.349739
-0.267029
-0.192383
-0.128504
-0.076569
-0.036842
-0.009011
0.007840
0.015418
0.016227
0.013013
0.008000
0.003151
-0.002330
-0.009365
-0.019115
-0.032981
-0.052193
-0.076918
-0.105392
-0.133925
-0.157971
-0.173520
-0.178102
-0.169195
-0.151236
-0.127353
-0.100648
-0.073719
-0.048462
-0.026071
-0.007150
0.008127
0.019855
0.028273
0.033703
0.036559
0.037382
0.036823
0.035532
0.034031
0.032669
0.031472
0.030224
0.028593
0.026191
0.022624
0.017533
0.010654
0.001915
-0.008474
-0.019959
-0.031666
-0.042494
-0.051289
-0.057036
-0.059081
-0.057022
-0.051237
-0.042529
-0.031958
-0.020662
-0.009686
0.000144
0.008277
0.014436
0.018578
0.020841
0.021493
0.020887
0.019405
0.017406
0.014674
0.449212
0.451213
0.456765
0.465598
0.477050
0.489673
0.500557
0.504395
0.492416
0.451574
0.364974
0.210203
-0.059645
-0.607907
-0.472019
-0.355296
-0.318615
-0.317500
-0.348255
-0.406629
-0.482869
-0.558487
-0.603923
-0.594925
-0.551849
-0.485023
-0.405526
-0.322614
-0.242984
-0.170866
-0.108478
-0.056622
-0.015311
0.015689
0.036652
0.048224
0.051785
0.049374
0.042894
0.035477
0.026283
0.014530
-0.000875
-0.021229
-0.047373
-0.078741
-0.112731
-0.145045
-0.170854
-0.186177
-0.187337
-0.174938
-0.153568
-0.126743
-0.097761
-0.069247
-0.043012
-0.020108
-0.000983
0.014334
0.026061
0.034526
0.040094
0.043161
0.044194
0.043752
0.042434
0.040757
0.039046
0.037424
0.035694
0.033532
0.030546
0.026331
0.020522
0.012865
0.003310
-0.007900
-0.020174
-0.032597
-0.044023
-0.053251
-0.059218
-0.061188
-0.058955
-0.052884
-0.043801
-0.032818
-0.021144
-0.009899
0.000024
0.008027
0.013811
0.017323
0.018694
0.018172
0.016078
0.012745
0.008468
0.002208
0.438882
0.440046
0.443179
0.447845
0.453148
0.457449
0.457932
0.450075
0.427129
0.379722
0.295597
0.159125
-0.048505
-0.305566
-0.338956
-0.315742
-0.304661
-0.314064
-0.346369
-0.399639
-0.464343
-0.521407
-0.541878
-0.528917
-0.488402
-0.428710
-0.358579
-0.285448
-0.214800
-0.150158
-0.093406
-0.045225
-0.005535
0.026071
0.049907
0.065964
0.074369
0.076083
0.072977
0.065731
0.054419
0.038990
0.018766
-0.007168
-0.039056
-0.075551
-0.113373
-0.147819
-0.173912
-0.187775
-0.184957
-0.170016
-0.146578
-0.118413
-0.088829
-0.060330
-0.034542
-0.012326
0.006036
0.020641
0.031796
0.039892
0.045321
0.048460
0.049702
0.049501
0.048357
0.046738
0.044980
0.043235
0.041328
0.038939
0.035667
0.031095
0.024855
0.016703
0.006614
-0.005133
-0.017911
-0.030765
-0.042521
-0.051952
-0.057977
-0.059802
-0.057438
-0.051243
-0.042055
-0.031018
-0.019381
-0.008308
0.001275
0.008755
0.013832
0.016457
0.016757
0.014965
0.011362
0.006225
-0.000229
-0.009862
0.426429
0.426848
0.427861
0.428974
0.429252
0.427134
0.420183
0.404838
0.376228
0.328205
0.253742
0.146389
0.005811
-0.144743
-0.220278
-0.250935
-0.270518
-0.294647
-0.329247
-0.373502
-0.419501
-0.452227
-0.461187
-0.447570
-0.413713
-0.365009
-0.307623
-0.247112
-0.187781
-0.132553
-0.083118
-0.040214
-0.003939
0.025950
0.049763
0.067714
0.079957
0.087503
0.091280
0.086728
0.075488
0.058436
0.035387
0.005980
-0.029313
-0.068437
-0.107622
-0.141957
-0.166453
-0.177268
-0.171438
-0.154881
-0.130968
-0.103284
-0.074887
-0.048003
-0.024000
-0.003534
0.013253
0.026544
0.036690
0.044100
0.049170
0.052258
0.053696
0.053835
0.053062
0.051754
0.050260
0.048678
0.046872
0.044536
0.041261
0.036621
0.030239
0.021883
0.011553
-0.000437
-0.013420
-0.026414
-0.038225
-0.047620
-0.053530
-0.055142
-0.052669
-0.046482
-0.037434
-0.026692
-0.015521
-0.005087
0.003700
0.010255
0.014307
0.015829
0.014953
0.011888
0.006869
0.000105
-0.008282
-0.020942
0.413208
0.413015
0.412306
0.410606
0.407058
0.400316
0.388430
0.368757
0.337987
0.292394
0.228498
0.144561
0.043971
-0.059662
-0.135673
-0.186097
-0.223328
-0.257038
-0.291964
-0.327867
-0.359768
-0.379397
-0.384048
-0.372353
-0.345735
-0.307612
-0.262178
-0.213460
-0.164776
-0.118535
-0.076260
-0.038739
-0.006223
0.021365
0.044265
0.062753
0.077080
0.088559
0.094312
0.093030
0.084491
0.068708
0.045715
0.015812
-0.019803
-0.058501
-0.096216
-0.128036
-0.149331
-0.155412
-0.148071
-0.131490
-0.108877
-0.083430
-0.057788
-0.033812
-0.012599
0.005369
0.020044
0.031642
0.040512
0.047045
0.051615
0.054552
0.056145
0.056666
0.056401
0.055630
0.054667
0.053508
0.052056
0.050022
0.047001
0.042551
0.036294
0.028005
0.017707
0.005749
-0.007169
-0.020037
-0.031651
-0.040787
-0.046404
-0.047732
-0.045132
-0.039024
-0.030304
-0.020165
-0.009869
-0.000538
0.006993
0.012226
0.014966
0.015231
0.013155
0.008921
0.002704
-0.005371
-0.015282
-0.030378
0.400335
0.399668
0.397639
0.393837
0.387537
0.377655
0.362709
0.340824
0.309851
0.267653
0.212697
0.145049
0.067948
-0.010845
-0.078703
-0.132822
-0.176622
-0.214385
-0.248648
-0.279318
-0.303792
-0.318397
-0.321447
-0.312151
-0.291469
-0.261671
-0.225663
-0.186385
-0.146397
-0.107670
-0.071549
-0.038815
-0.009805
0.015447
0.037090
0.055352
0.070689
0.082453
0.089272
0.090063
0.084078
0.070801
0.050061
0.022369
-0.010666
-0.046099
-0.079780
-0.106962
-0.123376
-0.125978
-0.118582
-0.103563
-0.083734
-0.061777
-0.039861
-0.019495
-0.001557
0.013589
0.025935
0.035695
0.043188
0.048770
0.052779
0.055510
0.057216
0.058113
0.058405
0.058342
0.058058
0.057512
0.056616
0.055092
0.052532
0.048490
0.042581
0.034586
0.024548
0.012848
0.000217
-0.012311
-0.023521
-0.032204
-0.037353
-0.038303
-0.035502
-0.029469
-0.021188
-0.011897
-0.002844
0.004941
0.010771
0.014313
0.015502
0.014424
0.011218
0.006022
-0.001061
-0.009992
-0.020854
-0.037511
0.388676
0.387656
0.384659
0.379356
0.371169
0.359263
0.342547
0.319732
0.289458
0.250550
0.202437
0.145739
0.082934
0.018643
-0.041045
-0.093189
-0.137915
-0.176496
-0.209831
-0.237706
-0.258790
-0.271344
-0.274162
-0.267027
-0.250749
-0.226982
-0.197861
-0.165610
-0.132245
-0.099390
-0.068214
-0.039453
-0.013476
0.009613
0.029876
0.047447
0.062483
0.074096
0.081465
0.083638
0.079751
0.069149
0.051606
0.027683
-0.000933
-0.031305
-0.059512
-0.081324
-0.093223
-0.094729
-0.088340
-0.075831
-0.059445
-0.041345
-0.023294
-0.006535
0.008200
0.020605
0.030687
0.038648
0.044787
0.049430
0.052880
0.055400
0.057203
0.058456
0.059297
0.060006
0.060421
0.060581
0.060365
0.059487
0.057534
0.054052
0.048650
0.041114
0.031502
0.020220
0.008030
-0.004006
-0.014662
-0.022736
-0.027262
-0.027679
-0.024543
-0.018513
-0.010704
-0.002434
0.005070
0.010915
0.014644
0.016175
0.015638
0.013210
0.009026
0.003159
-0.004372
-0.013609
-0.024714
-0.041772
0.378877
0.377593
0.373903
0.367565
0.358136
0.344986
0.327325
0.304271
0.274975
0.238811
0.195659
0.146233
0.092366
0.037003
-0.016365
-0.065325
-0.108890
-0.146900
-0.179285
-0.205624
-0.225104
-0.236774
-0.239851
-0.234434
-0.221281
-0.201724
-0.177445
-0.150220
-0.121694
-0.093235
-0.065862
-0.040245
-0.016753
0.004471
0.023424
0.040153
0.054555
0.065968
0.073738
0.077033
0.075011
0.067015
0.052840
0.033059
0.009293
-0.015766
-0.038698
-0.056079
-0.065398
-0.067131
-0.062254
-0.052276
-0.039024
-0.024273
-0.009507
0.004199
0.016201
0.026227
0.034296
0.040617
0.045497
0.049260
0.052197
0.054539
0.056460
0.058072
0.059520
0.060809
0.061900
0.062770
0.063262
0.063073
0.061782
0.058929
0.054115
0.047125
0.038027
0.027249
0.015583
0.004121
-0.005886
-0.013227
-0.016921
-0.016673
-0.013066
-0.006942
0.000417
0.007585
0.013345
0.016969
0.018296
0.017588
0.015236
0.011532
0.006586
0.000375
-0.007173
-0.016160
-0.026753
-0.042825
0.371419
0.369909
0.365708
0.358669
0.348454
0.334579
0.316459
0.293483
0.265108
0.231010
0.191270
0.146560
0.098276
0.048470
-0.000503
-0.046659
-0.088676
-0.125753
-0.157300
-0.182718
-0.201363
-0.212625
-0.216049
-0.211880
-0.200854
-0.184127
-0.163125
-0.139349
-0.114205
-0.088882
-0.064284
-0.041021
-0.019445
0.000289
0.018144
0.034112
0.047976
0.059252
0.067379
0.071616
0.071170
0.065406
0.054132
0.037891
0.018174
-0.002642
-0.021672
-0.036199
-0.044538
-0.046533
-0.042845
-0.034735
-0.023746
-0.011411
0.000962
0.012406
0.022329
0.030488
0.036919
0.041855
0.045632
0.048607
0.051086
0.053294
0.055375
0.057362
0.059272
0.061084
0.062784
0.064294
0.065431
0.065878
0.065209
0.062958
0.058719
0.052273
0.043692
0.033420
0.022278
0.011400
0.002075
-0.004464
-0.007155
-0.006215
-0.002085
0.004197
0.011174
0.017301
0.021348
0.022729
0.021595
0.018600
0.014462
0.009612
0.004121
-0.002150
-0.009376
-0.017682
-0.027127
-0.040757
0.366718
0.364885
0.360256
0.352749
0.342065
0.327799
0.309491
0.286683
0.259006
0.226290
0.188695
0.146834
0.101842
0.055310
0.009072
-0.035146
-0.075934
-0.112220
-0.143155
-0.168021
-0.186204
-0.197255
-0.200955
-0.197604
-0.187919
-0.172962
-0.154012
-0.132411
-0.109422
-0.086124
-0.063344
-0.041653
-0.021390
-0.002716
0.014321
0.029721
0.043236
0.054474
0.062932
0.067904
0.068618
0.064439
0.055161
0.041290
0.024206
0.006064
-0.010612
-0.023505
-0.031212
-0.033321
-0.030345
-0.023377
-0.013786
-0.002957
0.007908
0.017912
0.026496
0.033430
0.038756
0.042718
0.045673
0.048011
0.050080
0.052141
0.054374
0.056617
0.058900
0.061179
0.063391
0.065426
0.067080
0.068035
0.067864
0.066100
0.062331
0.056329
0.048166
0.038300
0.027586
0.017204
0.008499
0.002788
0.000778
0.002288
0.006813
0.013209
0.019916
0.025300
0.028082
0.027730
0.024597
0.019660
0.013957
0.008101
0.002173
-0.004051
-0.010834
-0.018343
-0.026384
-0.036385
0.365378
0.362626
0.357589
0.349808
0.338902
0.324480
0.306131
0.283469
0.256198
0.224208
0.187682
0.147190
0.103739
0.058725
0.013771
-0.029507
-0.069679
-0.105566
-0.136210
-0.160841
-0.178882
-0.189906
-0.193785
-0.190866
-0.181854
-0.167764
-0.149802
-0.129233
-0.107253
-0.084885
-0.062927
-0.041936
-0.022253
-0.004055
0.012572
0.027525
0.040781
0.052069
0.060824
0.066310
0.067718
0.064378
0.056055
0.043235
0.027275
0.010263
-0.005425
-0.017758
-0.025259
-0.027439
-0.024811
-0.018390
-0.009454
0.000691
0.010900
0.020306
0.028363
0.034841
0.039773
0.043391
0.046046
0.048131
0.049997
0.051896
0.053903
0.056253
0.058803
0.061414
0.063978
0.066364
0.068361
0.069645
0.069791
0.068325
0.064824
0.059049
0.051068
0.041351
0.030791
0.020620
0.012201
0.006690
0.004815
0.006496
0.011104
0.017470
0.024038
0.029179
0.031594
0.030717
0.026887
0.021133
0.014611
0.008073
0.001694
-0.004737
-0.011461
-0.018459
-0.025522
-0.032033
