# vtk DataFile Version 3.0
Scalar Field
ASCII
DATASET RECTILINEAR_GRID
DIMENSIONS 100 26 1
X_COORDINATES 100 double
0.050000 0.150000 0.250000 0.350000 0.450000 0.550000 0.650000 0.750000 0.850000 0.950000 1.050000 1.150000 1.250000 1.350000 1.450000 1.550000 1.650000 1.750000 1.850000 1.950000 2.050000 2.150000 2.250000 2.350000 2.450000 2.550000 2.650000 2.750000 2.850000 2.950000 3.050000 3.150000 3.250000 3.350000 3.450000 3.550000 3.650000 3.750000 3.850000 3.950000 4.050000 4.150000 4.250000 4.350000 4.450000 4.550000 4.650000 4.750000 4.850000 4.950000 5.050000 5.150000 5.250000 5.350000 5.450000 5.550000 5.650000 5.750000 5.850000 5.950000 6.050000 6.150000 6.250000 6.350000 6.450000 6.550000 6.650000 6.750000 6.850000 6.950000 7.050000 7.150000 7.250000 7.350000 7.450000 7.550000 7.650000 7.750000 7.850000 7.950000 8.050000 8.150000 8.250000 8.350000 8.450000 8.550000 8.650000 8.750000 8.850000 8.950000 9.050000 9.150000 9.250000 9.350000 9.450000 9.550000 9.650000 9.750000 9.850000 9.950000 
Y_COORDINATES 26 double
0.050000 0.150000 0.250000 0.350000 0.450000 0.550000 0.650000 0.750000 0.850000 0.950000 1.050000 1.150000 1.250000 1.350000 1.450000 1.550000 1.650000 1.750000 1.850000 1.950000 2.050000 2.150000 2.250000 2.350000 2.450000 2.550000 
Z_COORDINATES 1 double
0.0
POINT_DATA 2600
SCALARS Skalarfeld double 1
LOOKUP_TABLE default
0.205973
0.202290
0.194625
0.182563
0.165836
0.144276
0.117880
0.086914
0.052029
0.014304
-0.024824
-0.063784
-0.101133
-0.135709
-0.166662
-0.193391
-0.215453
-0.232488
-0.244205
-0.250286
-0.250633
-0.245441
-0.235178
-0.220563
-0.202507
-0.182011
-0.160067
-0.137570
-0.115257
-0.093672
-0.073169
-0.053937
-0.036044
-0.019508
-0.004388
0.009296
0.021296
0.031024
0.037760
0.040838
0.039920
0.035262
0.027825
0.019131
0.010869
0.004405
0.000860
0.000447
0.002778
0.007177
0.012842
0.018993
0.024968
0.030284
0.034655
0.037986
0.040355
0.041977
0.043151
0.044193
0.045356
0.046732
0.048545
0.050662
0.052919
0.055191
0.057347
0.059207
0.060499
0.060848
0.059832
0.057097
0.052527
0.046396
0.039431
0.032686
0.027220
0.023859
0.022726
0.023372
0.025002
0.026648
0.027396
0.026632
0.024202
0.020426
0.015918
0.011281
0.006837
0.002542
-0.001901
-0.006660
-0.012089
-0.018254
-0.025049
-0.032257
-0.039573
-0.046601
-0.052802
-0.057132
0.209009
0.206197
0.198792
0.186731
0.169791
0.147759
0.120562
0.088437
0.052081
0.012730
-0.027916
-0.068066
-0.106187
-0.141162
-0.172265
-0.199033
-0.221131
-0.238245
-0.250049
-0.256211
-0.256516
-0.251106
-0.240431
-0.225236
-0.206474
-0.185205
-0.162472
-0.139215
-0.116197
-0.093983
-0.072932
-0.053228
-0.034929
-0.018018
-0.002469
0.011518
0.023544
0.033068
0.039391
0.041870
0.040198
0.034668
0.026289
0.016670
0.007655
0.000853
-0.002837
-0.003171
-0.000581
0.004184
0.010257
0.016812
0.023164
0.028818
0.033489
0.037087
0.039700
0.041548
0.042929
0.044152
0.045475
0.047078
0.048803
0.050662
0.052586
0.054499
0.056305
0.057852
0.058889
0.059055
0.057931
0.055158
0.050592
0.044446
0.037368
0.030374
0.024668
0.021201
0.019950
0.020549
0.022228
0.024011
0.024977
0.024514
0.022474
0.019173
0.015196
0.011084
0.007099
0.003170
-0.000978
-0.005796
-0.011381
-0.017740
-0.024772
-0.032272
-0.039965
-0.047517
-0.054518
-0.061304
0.217189
0.214614
0.207375
0.195287
0.178003
0.155129
0.126401
0.091931
0.052476
0.009605
-0.034319
-0.076967
-0.116637
-0.152357
-0.183697
-0.210509
-0.232690
-0.250027
-0.262174
-0.268626
-0.268944
-0.263167
-0.251707
-0.235350
-0.215143
-0.192260
-0.167852
-0.142945
-0.118367
-0.094723
-0.072399
-0.051590
-0.032355
-0.014672
0.001475
0.015891
0.028085
0.037411
0.043078
0.044401
0.041101
0.033562
0.022961
0.011172
0.000381
-0.007508
-0.011521
-0.011624
-0.008428
-0.002841
0.004150
0.011639
0.018899
0.025421
0.030919
0.035309
0.038672
0.041209
0.043177
0.044826
0.046345
0.047849
0.049345
0.050845
0.052298
0.053678
0.054943
0.055991
0.056614
0.056474
0.055155
0.052284
0.047674
0.041464
0.034194
0.026783
0.020367
0.015985
0.014325
0.014696
0.016396
0.018506
0.020132
0.020647
0.019833
0.017866
0.015142
0.012031
0.008694
0.005052
0.000885
-0.004062
-0.009895
-0.016616
-0.024100
-0.032156
-0.040547
-0.049019
-0.057325
-0.066798
0.230066
0.227612
0.220554
0.208517
0.190887
0.166912
0.135920
0.097697
0.053013
0.003977
-0.045514
-0.092076
-0.133864
-0.170331
-0.201670
-0.228314
-0.250557
-0.268320
-0.281115
-0.288142
-0.288614
-0.282333
-0.269644
-0.251416
-0.228882
-0.203417
-0.176355
-0.148861
-0.121860
-0.096022
-0.071772
-0.049329
-0.028754
-0.010006
0.006979
0.022094
0.034654
0.043816
0.048587
0.048195
0.042394
0.031695
0.017512
0.002128
-0.011688
-0.021360
-0.025622
-0.025147
-0.020814
-0.013788
-0.005254
0.003763
0.012477
0.020361
0.027130
0.032699
0.037135
0.040603
0.043309
0.045452
0.047188
0.048618
0.049780
0.050692
0.051588
0.052305
0.052866
0.053242
0.053307
0.052776
0.051258
0.048374
0.043891
0.037856
0.030678
0.023122
0.016191
0.010863
0.008209
0.008160
0.009720
0.012103
0.014465
0.016148
0.016807
0.016415
0.015139
0.013164
0.010573
0.007309
0.003227
-0.001832
-0.007950
-0.015105
-0.023174
-0.031961
-0.041250
-0.050836
-0.060569
-0.072230
0.247415
0.245129
0.238455
0.226783
0.209098
0.184043
0.150157
0.106453
0.053455
-0.006057
-0.064344
-0.116176
-0.160024
-0.196482
-0.226945
-0.252828
-0.275047
-0.293676
-0.307825
-0.316061
-0.317095
-0.310248
-0.295762
-0.274716
-0.248688
-0.219407
-0.188493
-0.157312
-0.126920
-0.098063
-0.071210
-0.046603
-0.024305
-0.004249
0.013714
0.029732
0.042868
0.051946
0.055674
0.053215
0.044421
0.029932
0.011325
-0.008811
-0.027105
-0.040122
-0.045287
-0.043927
-0.037891
-0.028729
-0.017940
-0.006744
0.003985
0.013691
0.022092
0.029107
0.034799
0.039310
0.042820
0.045502
0.047496
0.048891
0.049721
0.050002
0.049788
0.049598
0.049284
0.048813
0.048219
0.047305
0.045712
0.043048
0.039024
0.033582
0.026978
0.019799
0.012890
0.007179
0.003461
0.002679
0.003863
0.006270
0.009121
0.011735
0.013653
0.014658
0.014710
0.013833
0.012030
0.009240
0.005353
0.000253
-0.006116
-0.013717
-0.022409
-0.031986
-0.042223
-0.052932
-0.063994
-0.077455
0.268920
0.266949
0.261085
0.250452
0.233510
0.207975
0.170953
0.119693
0.053576
-0.024475
-0.096017
-0.153474
-0.197624
-0.231755
-0.259307
-0.283171
-0.305184
-0.325636
-0.342846
-0.353760
-0.356369
-0.349095
-0.332106
-0.306964
-0.275904
-0.241237
-0.205005
-0.168840
-0.133945
-0.101142
-0.070942
-0.043613
-0.019240
0.002237
0.021020
0.037600
0.051440
0.060524
0.063146
0.058577
0.046992
0.029231
0.006880
-0.017522
-0.040486
-0.058056
-0.066904
-0.065434
-0.057854
-0.046430
-0.033107
-0.019388
-0.006306
0.005517
0.015777
0.024393
0.031428
0.037021
0.041344
0.044563
0.046800
0.048112
0.048502
0.047986
0.046688
0.044875
0.043354
0.041921
0.040714
0.039589
0.038191
0.036095
0.032947
0.028579
0.023087
0.016867
0.010579
0.005022
0.000946
-0.000911
-0.000179
0.001973
0.004928
0.008036
0.010769
0.012771
0.013840
0.013866
0.012767
0.010449
0.006799
0.001713
-0.004856
-0.012857
-0.022132
-0.032451
-0.043568
-0.055286
-0.067499
-0.082476
0.294000
0.292574
0.288187
0.279734
0.265108
0.240792
0.201493
0.140604
0.053294
-0.060120
-0.149530
-0.208895
-0.247848
-0.274791
-0.295724
-0.315271
-0.336502
-0.360280
-0.384147
-0.401310
-0.407678
-0.400561
-0.380278
-0.349472
-0.311552
-0.269719
-0.226577
-0.184062
-0.143522
-0.105836
-0.071541
-0.040942
-0.014206
0.008608
0.027604
0.043028
0.056996
0.065809
0.066907
0.060051
0.046319
0.026983
0.003420
-0.022427
-0.047661
-0.068629
-0.081943
-0.083881
-0.075968
-0.063341
-0.048241
-0.032489
-0.017344
-0.003567
0.008460
0.018612
0.026927
0.033534
0.038593
0.042255
0.044604
0.045645
0.045334
0.043712
0.041035
0.037810
0.034649
0.032288
0.030679
0.029646
0.028795
0.027653
0.025798
0.022954
0.019065
0.014337
0.009234
0.004399
0.000517
-0.001859
-0.001857
-0.000218
0.002467
0.005603
0.008646
0.011163
0.012840
0.013462
0.012867
0.010911
0.007457
0.002390
-0.004340
-0.012676
-0.022444
-0.033387
-0.045237
-0.057783
-0.070926
-0.087144
0.321653
0.321058
0.319016
0.314353
0.304610
0.285061
0.247043
0.176185
0.052823
-0.133772
-0.238271
-0.284060
-0.306772
-0.319644
-0.329184
-0.341135
-0.359792
-0.387295
-0.421928
-0.453809
-0.468197
-0.462710
-0.438645
-0.400851
-0.354599
-0.304273
-0.253107
-0.203328
-0.156396
-0.113217
-0.074339
-0.040116
-0.010868
0.013015
0.031260
0.044345
0.052684
0.059399
0.058085
0.048909
0.034978
0.017405
-0.003340
-0.026347
-0.049695
-0.070461
-0.085386
-0.091991
-0.086644
-0.074936
-0.059804
-0.043418
-0.027278
-0.012329
0.000900
0.012179
0.021466
0.028837
0.034409
0.038281
0.040476
0.040924
0.039560
0.036512
0.032256
0.027575
0.023268
0.020177
0.018469
0.017874
0.017929
0.018105
0.017906
0.016954
0.015055
0.012239
0.008776
0.005140
0.001910
-0.000366
-0.001199
-0.000101
0.002059
0.004838
0.007739
0.010306
0.012168
0.013035
0.012678
0.010903
0.007536
0.002443
-0.004439
-0.013051
-0.023208
-0.034635
-0.047040
-0.060202
-0.074023
-0.091168
0.350356
0.350870
0.352052
0.352997
0.351541
0.342731
0.315118
0.242297
0.057298
-0.298094
-0.373949
-0.366028
-0.360968
-0.356412
-0.352171
-0.354381
-0.367866
-0.395867
-0.439721
-0.491941
-0.525101
-0.524226
-0.497354
-0.453091
-0.399073
-0.340900
-0.282350
-0.225882
-0.173056
-0.124834
-0.081803
-0.044389
-0.013157
0.010797
0.026120
0.033245
0.035016
0.032585
0.027477
0.019843
0.010070
-0.001706
-0.015736
-0.031986
-0.049546
-0.066425
-0.079927
-0.087503
-0.087592
-0.078333
-0.065004
-0.049745
-0.034130
-0.019247
-0.005786
0.005867
0.015542
0.023206
0.028886
0.032590
0.034249
0.033728
0.030989
0.026326
0.020498
0.014562
0.009502
0.006061
0.004605
0.004799
0.006109
0.007928
0.009682
0.010897
0.011252
0.010625
0.009111
0.007019
0.004804
0.002968
0.001931
0.002309
0.003777
0.005936
0.008353
0.010595
0.012272
0.013054
0.012663
0.010861
0.007441
0.002242
-0.004810
-0.013660
-0.024117
-0.035890
-0.048673
-0.062228
-0.076463
-0.094175
0.378088
0.379864
0.384814
0.392694
0.402627
0.411773
0.411132
0.370738
0.153662
-0.616647
-0.533401
-0.412925
-0.390601
-0.378162
-0.365187
-0.362092
-0.373110
-0.398487
-0.441751
-0.499226
-0.552460
-0.564425
-0.537694
-0.490762
-0.433124
-0.371108
-0.308747
-0.248670
-0.192617
-0.141763
-0.096996
-0.059255
-0.029937
-0.010776
-0.002445
-0.002755
-0.007287
-0.013041
-0.017441
-0.020479
-0.023352
-0.026923
-0.032040
-0.039317
-0.048715
-0.059216
-0.068902
-0.075570
-0.077629
-0.072978
-0.062763
-0.050144
-0.036523
-0.023027
-0.010466
0.000621
0.009909
0.017223
0.022461
0.025511
0.026197
0.024345
0.019995
0.013659
0.006375
-0.000582
-0.006126
-0.009553
-0.010407
-0.009072
-0.006169
-0.002401
0.001553
0.005121
0.007876
0.009571
0.010160
0.009804
0.008839
0.007698
0.006792
0.006603
0.007431
0.008864
0.010599
0.012266
0.013489
0.013925
0.013271
0.011255
0.007640
0.002248
-0.005009
-0.014078
-0.024763
-0.036762
-0.049753
-0.063484
-0.077856
-0.095745
0.402549
0.405504
0.414022
0.428685
0.450469
0.480640
0.520105
0.565992
0.654458
0.018906
-0.463074
-0.392747
-0.395495
-0.390867
-0.385128
-0.384115
-0.392813
-0.412179
-0.446623
-0.494948
-0.542803
-0.566915
-0.545023
-0.500254
-0.444917
-0.385123
-0.324645
-0.266141
-0.211581
-0.162519
-0.120391
-0.086856
-0.063866
-0.052700
-0.052073
-0.057532
-0.063897
-0.067933
-0.067233
-0.063398
-0.058097
-0.052736
-0.048538
-0.046498
-0.047167
-0.050341
-0.054906
-0.059105
-0.061151
-0.059691
-0.053639
-0.044599
-0.034006
-0.022951
-0.012295
-0.002687
0.005411
0.011677
0.015867
0.017735
0.017006
0.013488
0.007339
-0.000699
-0.009348
-0.017170
-0.023011
-0.026155
-0.026085
-0.023264
-0.018434
-0.012436
-0.006077
-0.000039
0.005160
0.009181
0.011877
0.013299
0.013686
0.013408
0.012887
0.012515
0.012695
0.013397
0.014389
0.015365
0.015987
0.015919
0.014847
0.012482
0.008568
0.002912
-0.004577
-0.013848
-0.024698
-0.036813
-0.049853
-0.063543
-0.077770
-0.095415
0.421599
0.425377
0.436371
0.455686
0.485426
0.529241
0.593461
0.688665
0.819295
0.840065
0.000000
-0.396573
-0.400398
-0.404309
-0.408317
-0.414698
-0.424029
-0.438357
-0.460120
-0.488178
-0.515031
-0.526258
-0.515930
-0.476230
-0.427790
-0.375540
-0.322472
-0.271060
-0.223390
-0.181336
-0.146851
-0.122145
-0.109084
-0.107378
-0.113245
-0.120852
-0.125463
-0.123423
-0.115197
-0.102979
-0.088865
-0.074634
-0.061723
-0.051259
-0.044023
-0.040289
-0.039592
-0.040707
-0.042019
-0.042121
-0.039698
-0.034145
-0.026965
-0.018943
-0.010871
-0.003438
0.002799
0.007399
0.009981
0.010172
0.007607
0.002108
-0.006029
-0.015843
-0.025852
-0.034483
-0.040514
-0.043160
-0.041880
-0.037257
-0.030202
-0.021736
-0.012823
-0.004267
0.003331
0.009571
0.014251
0.017357
0.019061
0.019683
0.019624
0.019267
0.019054
0.019159
0.019473
0.019771
0.019766
0.019145
0.017596
0.014823
0.010563
0.004619
-0.003101
-0.012538
-0.023480
-0.035597
-0.048523
-0.061952
-0.075741
-0.092678
0.433743
0.437816
0.449650
0.470335
0.501794
0.546818
0.608632
0.688696
0.780765
0.860835
0.766359
0.000000
-0.409348
-0.418299
-0.432176
-0.450138
-0.467846
-0.480656
-0.485811
-0.485508
-0.480627
-0.467436
-0.449508
-0.420133
-0.379979
-0.337910
-0.295742
-0.255562
-0.219367
-0.189216
-0.167472
-0.156450
-0.156792
-0.165585
-0.176856
-0.184519
-0.184647
-0.174105
-0.156888
-0.135573
-0.112617
-0.090072
-0.069504
-0.052032
-0.038406
-0.029015
-0.023747
-0.021829
-0.021909
-0.022457
-0.022157
-0.020094
-0.016283
-0.011428
-0.006223
-0.001342
0.002611
0.005107
0.005652
0.003758
-0.001001
-0.008765
-0.019086
-0.030799
-0.042234
-0.051687
-0.057847
-0.059809
-0.057077
-0.050404
-0.040910
-0.029827
-0.018303
-0.007271
0.002592
0.010851
0.017289
0.021874
0.024750
0.026211
0.026648
0.026467
0.026042
0.025726
0.025505
0.025237
0.024685
0.023565
0.021575
0.018422
0.013844
0.007647
-0.000250
-0.009778
-0.020710
-0.032692
-0.045325
-0.058258
-0.071299
-0.087005
0.438443
0.442283
0.453369
0.472430
0.500648
0.539507
0.589943
0.649845
0.705714
0.719858
0.671884
0.547856
0.000000
-0.437961
-0.457623
-0.501089
-0.533691
-0.545989
-0.527707
-0.490198
-0.446543
-0.404605
-0.367268
-0.332577
-0.302676
-0.270632
-0.240338
-0.213684
-0.192565
-0.179143
-0.175735
-0.183519
-0.200394
-0.220436
-0.236393
-0.243057
-0.235089
-0.215510
-0.189074
-0.158956
-0.127935
-0.098223
-0.071410
-0.048526
-0.030169
-0.016619
-0.007846
-0.003362
-0.002121
-0.002706
-0.003763
-0.004145
-0.003108
-0.001135
0.001297
0.003584
0.005118
0.005307
0.003567
-0.000680
-0.007891
-0.018136
-0.030805
-0.044531
-0.057466
-0.067759
-0.073999
-0.075101
-0.070752
-0.061896
-0.049887
-0.036188
-0.022134
-0.008788
0.003104
0.013095
0.020985
0.026763
0.030585
0.032745
0.033634
0.033678
0.033253
0.032679
0.032108
0.031449
0.030509
0.029028
0.026718
0.023294
0.018502
0.012158
0.004197
-0.005296
-0.016070
-0.027744
-0.039874
-0.052050
-0.064011
-0.077896
0.436123
0.439396
0.448758
0.464544
0.487137
0.516497
0.551196
0.586053
0.607902
0.591302
0.518273
0.423828
0.246610
0.000000
-0.515853
-0.574083
-0.613266
-0.618655
-0.570012
-0.493803
-0.411774
-0.338124
-0.279195
-0.234651
-0.201624
-0.178361
-0.159135
-0.147114
-0.144169
-0.152058
-0.171763
-0.201677
-0.236189
-0.266960
-0.286239
-0.289326
-0.272032
-0.243845
-0.209156
-0.171643
-0.134272
-0.099246
-0.068044
-0.041523
-0.020072
-0.003786
0.007436
0.013938
0.016479
0.016255
0.014645
0.012862
0.011556
0.011128
0.011157
0.011096
0.010338
0.008251
0.004176
-0.002523
-0.012299
-0.025120
-0.040198
-0.055969
-0.070407
-0.081507
-0.087748
-0.087841
-0.081810
-0.070798
-0.056390
-0.040269
-0.023947
-0.008604
0.004964
0.016315
0.025288
0.031925
0.036420
0.039088
0.040333
0.040596
0.040281
0.039630
0.038913
0.038077
0.036956
0.035312
0.032869
0.029350
0.024514
0.018193
0.010340
0.001064
-0.009357
-0.020507
-0.031890
-0.043025
-0.053560
-0.064981
0.427813
0.430280
0.437243
0.448632
0.464110
0.482593
0.501371
0.514558
0.511073
0.473205
0.382621
0.228698
0.069393
-0.385932
-0.681880
-0.621259
-0.662791
-0.645775
-0.576529
-0.477589
-0.370980
-0.274255
-0.197404
-0.141377
-0.102128
-0.077417
-0.067212
-0.069486
-0.086235
-0.117392
-0.161008
-0.211938
-0.261663
-0.300572
-0.321473
-0.315936
-0.291313
-0.256182
-0.215443
-0.173011
-0.131827
-0.093928
-0.060559
-0.032333
-0.009412
0.008310
0.021052
0.029106
0.032974
0.033518
0.031915
0.029328
0.026676
0.024558
0.022755
0.020792
0.018073
0.013932
0.007657
-0.001418
-0.013699
-0.029020
-0.046406
-0.064103
-0.079912
-0.091680
-0.097790
-0.096777
-0.089131
-0.076174
-0.059695
-0.041566
-0.023441
-0.006584
0.008181
0.020438
0.030081
0.037218
0.042098
0.045070
0.046554
0.046998
0.046808
0.046271
0.045611
0.044815
0.043741
0.042162
0.039812
0.036421
0.031760
0.025678
0.018152
0.009316
-0.000520
-0.010899
-0.021267
-0.031064
-0.039830
-0.048144
0.414972
0.416547
0.420899
0.427675
0.436081
0.444485
0.449778
0.446434
0.425442
0.373367
0.272166
0.096448
-0.208197
-0.841256
-0.742500
-0.642792
-0.631701
-0.596491
-0.523572
-0.425571
-0.319509
-0.220671
-0.138851
-0.075977
-0.028677
0.003605
0.011007
-0.002436
-0.036888
-0.088017
-0.150294
-0.215783
-0.274388
-0.316013
-0.333202
-0.319720
-0.290339
-0.251346
-0.207860
-0.163758
-0.121775
-0.083666
-0.050398
-0.022345
0.000530
0.018497
0.031900
0.041052
0.046275
0.048072
0.047246
0.044784
0.041553
0.038455
0.035461
0.032143
0.027913
0.022075
0.013884
0.002680
-0.011860
-0.029412
-0.048812
-0.068128
-0.085011
-0.097185
-0.102947
-0.100822
-0.091772
-0.077265
-0.059248
-0.039728
-0.020450
-0.002720
0.012651
0.025291
0.035161
0.042440
0.047433
0.050523
0.052143
0.052742
0.052735
0.052410
0.051969
0.051413
0.050606
0.049326
0.047306
0.044284
0.040038
0.034436
0.027476
0.019323
0.010319
0.000967
-0.008119
-0.016295
-0.022986
-0.027627
0.399227
0.399950
0.401846
0.404412
0.406653
0.406796
0.401875
0.387201
0.355809
0.297950
0.200450
0.045446
-0.191220
-0.497375
-0.563826
-0.556666
-0.538022
-0.501763
-0.441608
-0.362869
-0.276189
-0.192136
-0.117958
-0.056258
-0.007201
0.029076
0.046691
0.028858
-0.014552
-0.075068
-0.144762
-0.214193
-0.272798
-0.311234
-0.317472
-0.300921
-0.270095
-0.231040
-0.188565
-0.146196
-0.106319
-0.070385
-0.039126
-0.012750
0.008884
0.026123
0.039391
0.049066
0.055430
0.058749
0.059425
0.058051
0.055242
0.052008
0.048519
0.044433
0.039199
0.032109
0.022406
0.009469
-0.006910
-0.026236
-0.047164
-0.067614
-0.085124
-0.097345
-0.102559
-0.099346
-0.089197
-0.073670
-0.054801
-0.034662
-0.015023
0.002830
0.018138
0.030598
0.040249
0.047334
0.052206
0.055270
0.056959
0.057710
0.057929
0.057912
0.057828
0.057681
0.057336
0.056567
0.055102
0.052679
0.049082
0.044195
0.038037
0.030799
0.022860
0.014768
0.007196
0.000874
-0.003511
-0.004068
0.382129
0.382116
0.381921
0.381001
0.378349
0.372312
0.360357
0.338814
0.302684
0.245616
0.160183
0.039129
-0.119250
-0.294119
-0.387646
-0.422153
-0.423627
-0.401207
-0.359859
-0.303634
-0.239404
-0.174259
-0.113628
-0.060537
-0.016251
0.019394
0.032115
0.017005
-0.022279
-0.078596
-0.142963
-0.205172
-0.254539
-0.281773
-0.281436
-0.264394
-0.235655
-0.200158
-0.161949
-0.124015
-0.088368
-0.056220
-0.028168
-0.004367
0.015329
0.031245
0.043796
0.053385
0.060337
0.064877
0.067190
0.067518
0.066229
0.063991
0.060810
0.056617
0.050958
0.043144
0.032441
0.018300
0.000651
-0.019838
-0.041663
-0.062632
-0.080224
-0.092069
-0.096424
-0.092271
-0.081417
-0.065473
-0.046515
-0.026604
-0.007460
0.009719
0.024273
0.035998
0.045011
0.051611
0.056182
0.059130
0.060868
0.061803
0.062313
0.062698
0.063088
0.063487
0.063761
0.063675
0.062953
0.061325
0.058580
0.054609
0.049451
0.043323
0.036635
0.029979
0.024088
0.019769
0.017817
0.021555
0.365021
0.364421
0.362575
0.358977
0.352722
0.342414
0.326052
0.300955
0.263790
0.210825
0.138589
0.045400
-0.065134
-0.178937
-0.260118
-0.305178
-0.321338
-0.314814
-0.290637
-0.253548
-0.208489
-0.160487
-0.113744
-0.071240
-0.034081
-0.008068
0.000675
-0.011051
-0.041740
-0.086318
-0.137174
-0.185152
-0.220917
-0.236098
-0.234580
-0.219851
-0.195694
-0.165880
-0.133616
-0.101352
-0.070794
-0.043006
-0.018542
0.002422
0.019973
0.034372
0.045972
0.055146
0.062229
0.067463
0.070985
0.072845
0.073788
0.073093
0.070980
0.067406
0.061977
0.054053
0.042958
0.028247
0.010002
-0.010947
-0.032963
-0.053781
-0.070878
-0.081968
-0.085007
-0.080176
-0.069031
-0.053276
-0.034981
-0.016131
0.001688
0.017433
0.030593
0.041084
0.049105
0.054997
0.059150
0.061949
0.063764
0.064951
0.065840
0.066725
0.067687
0.068737
0.069742
0.070464
0.070617
0.069928
0.068180
0.065271
0.061253
0.056363
0.051041
0.045918
0.041780
0.039505
0.039989
0.048026
0.348976
0.347935
0.344864
0.339333
0.330596
0.317549
0.298704
0.272214
0.235996
0.188057
0.127110
0.053655
-0.028337
-0.109884
-0.175657
-0.219652
-0.242401
-0.246665
-0.235718
-0.213144
-0.182889
-0.148742
-0.114061
-0.081438
-0.053719
-0.034812
-0.028326
-0.036259
-0.057820
-0.089443
-0.125342
-0.158462
-0.181875
-0.191767
-0.190019
-0.178213
-0.158871
-0.134713
-0.108201
-0.081323
-0.055541
-0.031817
-0.010697
0.007608
0.023124
0.036046
0.046666
0.055316
0.062313
0.067912
0.072273
0.075579
0.077999
0.078878
0.078217
0.075806
0.071195
0.063765
0.052909
0.038296
0.020154
-0.000543
-0.022052
-0.042066
-0.058095
-0.067991
-0.069555
-0.064228
-0.053160
-0.038137
-0.021173
-0.004104
0.011684
0.025359
0.036602
0.045470
0.052244
0.057291
0.060981
0.063652
0.065608
0.067136
0.068501
0.069979
0.071593
0.073363
0.075162
0.076756
0.077857
0.078180
0.077507
0.075734
0.072919
0.069317
0.065388
0.061797
0.059376
0.059068
0.061858
0.074012
0.334804
0.333444
0.329507
0.322653
0.312303
0.297629
0.277575
0.250925
0.216457
0.173229
0.121038
0.061068
-0.003369
-0.066462
-0.120440
-0.160541
-0.185420
-0.195864
-0.193823
-0.181591
-0.162208
-0.138626
-0.113599
-0.089587
-0.069282
-0.055333
-0.050055
-0.054665
-0.068625
-0.089483
-0.113206
-0.134961
-0.150266
-0.156885
-0.154911
-0.145252
-0.129559
-0.109776
-0.087789
-0.065214
-0.043304
-0.022931
-0.004619
0.011404
0.025131
0.036718
0.046419
0.054533
0.061360
0.067156
0.072094
0.076469
0.079838
0.081997
0.082719
0.081624
0.078154
0.071655
0.061558
0.047623
0.030198
0.010374
-0.010028
-0.028677
-0.043122
-0.051293
-0.051729
-0.046012
-0.035341
-0.021490
-0.006354
0.008426
0.021703
0.032889
0.041875
0.048881
0.054270
0.058426
0.061675
0.064282
0.066466
0.068428
0.070374
0.072489
0.074795
0.077311
0.079919
0.082391
0.084439
0.085776
0.086176
0.085531
0.083901
0.081546
0.078945
0.076787
0.075937
0.077395
0.082230
0.098148
0.323088
0.321498
0.316960
0.309236
0.297894
0.282332
0.261822
0.235595
0.202983
0.163644
0.117878
0.066987
0.013598
-0.038350
-0.084226
-0.120555
-0.145672
-0.159477
-0.162972
-0.157827
-0.146118
-0.130231
-0.112459
-0.095012
-0.080027
-0.069478
-0.064938
-0.067181
-0.075816
-0.089173
-0.104522
-0.118629
-0.128578
-0.132545
-0.130031
-0.121527
-0.108141
-0.091299
-0.072477
-0.053011
-0.033985
-0.016180
-0.000083
0.014081
0.026305
0.036732
0.045608
0.053221
0.059861
0.065788
0.071193
0.076108
0.080260
0.083442
0.085328
0.085441
0.083148
0.077758
0.068710
0.055821
0.039522
0.020987
0.002091
-0.014837
-0.027432
-0.033753
-0.033315
-0.027472
-0.017477
-0.005056
0.008033
0.020349
0.030970
0.039540
0.046169
0.051243
0.055230
0.058526
0.061409
0.064046
0.066543
0.068999
0.071588
0.074331
0.077320
0.080559
0.083931
0.087221
0.090148
0.092424
0.093816
0.094211
0.093662
0.092431
0.091005
0.090085
0.090562
0.093469
0.099940
0.119074
0.314250
0.312462
0.307491
0.299202
0.287277
0.271276
0.250697
0.225063
0.194040
0.157615
0.116303
0.071357
0.024889
-0.020227
-0.060823
-0.094276
-0.119018
-0.134594
-0.141489
-0.140869
-0.134333
-0.123758
-0.111082
-0.098185
-0.086826
-0.078551
-0.074525
-0.075297
-0.080590
-0.089231
-0.099303
-0.108533
-0.114862
-0.116722
-0.113521
-0.105493
-0.093417
-0.078396
-0.061634
-0.044271
-0.027257
-0.011301
0.003150
0.015890
0.026919
0.036389
0.044555
0.051719
0.058179
0.064197
0.069929
0.075261
0.080068
0.084099
0.086962
0.088112
0.086874
0.082541
0.074562
0.062794
0.047722
0.030579
0.013271
-0.001907
-0.012719
-0.017485
-0.016646
-0.010941
-0.001732
0.009296
0.020500
0.030595
0.038833
0.045036
0.049497
0.052770
0.055442
0.057959
0.060558
0.063316
0.066195
0.069168
0.072290
0.075629
0.079243
0.083120
0.087152
0.091138
0.094807
0.097875
0.100105
0.101372
0.101724
0.101416
0.100935
0.100986
0.102465
0.106410
0.113958
0.135372
0.308658
0.306567
0.301225
0.292563
0.280311
0.264120
0.243620
0.218502
0.188622
0.154130
0.115625
0.074279
0.031888
-0.009254
-0.046687
-0.078276
-0.102593
-0.119063
-0.127907
-0.129990
-0.126618
-0.119365
-0.109899
-0.099857
-0.090752
-0.083879
-0.080189
-0.080128
-0.083501
-0.089423
-0.096432
-0.102768
-0.106793
-0.107209
-0.103440
-0.095577
-0.084211
-0.070252
-0.054737
-0.038675
-0.022930
-0.008157
0.005227
0.017026
0.027246
0.036042
0.043675
0.050462
0.056729
0.062792
0.068710
0.074421
0.079797
0.084545
0.088217
0.090218
0.089835
0.086352
0.079228
0.068349
0.054248
0.038209
0.022156
0.008331
-0.001156
-0.005301
-0.004262
0.001206
0.009741
0.019712
0.029566
0.038110
0.044690
0.049221
0.052094
0.053975
0.055563
0.057385
0.059712
0.062613
0.065746
0.069125
0.072721
0.076559
0.080668
0.085036
0.089565
0.094068
0.098286
0.101940
0.104788
0.106696
0.107700
0.108047
0.108217
0.108917
0.111032
0.115569
0.123563
0.145469
0.306883
0.303881
0.298162
0.289276
0.276878
0.260632
0.240226
0.215425
0.186163
0.152655
0.115520
0.075880
0.035374
-0.003953
-0.039931
-0.070639
-0.094727
-0.111582
-0.121322
-0.124676
-0.122812
-0.117157
-0.109243
-0.100575
-0.092543
-0.086327
-0.082787
-0.082338
-0.084834
-0.089522
-0.095146
-0.100201
-0.103244
-0.102998
-0.098961
-0.091177
-0.080151
-0.066696
-0.051764
-0.036298
-0.021118
-0.006850
0.006096
0.017530
0.027451
0.036011
0.043463
0.050115
0.056274
0.062164
0.068080
0.074065
0.079875
0.085153
0.089404
0.091987
0.092158
0.089174
0.082488
0.071996
0.058270
0.042653
0.027118
0.013843
0.004597
0.000539
0.001556
0.006804
0.014940
0.024393
0.033668
0.041618
0.047612
0.051572
0.053890
0.055239
0.056342
0.057761
0.059774
0.062344
0.065575
0.069213
0.073115
0.077263
0.081675
0.086337
0.091162
0.095969
0.100508
0.104499
0.107692
0.109943
0.111276
0.111931
0.112387
0.113347
0.115700
0.120427
0.128466
0.148059
