# vtk DataFile Version 3.0
Vector Field
ASCII
DATASET RECTILINEAR_GRID
DIMENSIONS 100 26 1
X_COORDINATES 100 double
0.050000 0.150000 0.250000 0.350000 0.450000 0.550000 0.650000 0.750000 0.850000 0.950000 1.050000 1.150000 1.250000 1.350000 1.450000 1.550000 1.650000 1.750000 1.850000 1.950000 2.050000 2.150000 2.250000 2.350000 2.450000 2.550000 2.650000 2.750000 2.850000 2.950000 3.050000 3.150000 3.250000 3.350000 3.450000 3.550000 3.650000 3.750000 3.850000 3.950000 4.050000 4.150000 4.250000 4.350000 4.450000 4.550000 4.650000 4.750000 4.850000 4.950000 5.050000 5.150000 5.250000 5.350000 5.450000 5.550000 5.650000 5.750000 5.850000 5.950000 6.050000 6.150000 6.250000 6.350000 6.450000 6.550000 6.650000 6.750000 6.850000 6.950000 7.050000 7.150000 7.250000 7.350000 7.450000 7.550000 7.650000 7.750000 7.850000 7.950000 8.050000 8.150000 8.250000 8.350000 8.450000 8.550000 8.650000 8.750000 8.850000 8.950000 9.050000 9.150000 9.250000 9.350000 9.450000 9.550000 9.650000 9.750000 9.850000 9.950000 
Y_COORDINATES 26 double
0.050000 0.150000 0.250000 0.350000 0.450000 0.550000 0.650000 0.750000 0.850000 0.950000 1.050000 1.150000 1.250000 1.350000 1.450000 1.550000 1.650000 1.750000 1.850000 1.950000 2.050000 2.150000 2.250000 2.350000 2.450000 2.550000 
Z_COORDINATES 1 double
0.0
POINT_DATA 2600
VECTORS Vektorfeld double
1.000772 -0.000772 0.0
1.004306 -0.002762 0.0
1.011970 -0.004902 0.0
1.023952 -0.007080 0.0
1.040247 -0.009215 0.0
1.060659 -0.011198 0.0
1.084743 -0.012886 0.0
1.111742 -0.014114 0.0
1.140584 -0.014728 0.0
1.169961 -0.014648 0.0
1.198527 -0.013918 0.0
1.225141 -0.012697 0.0
1.249042 -0.011203 0.0
1.269894 -0.009649 0.0
1.287749 -0.008206 0.0
1.302939 -0.006984 0.0
1.315953 -0.006030 0.0
1.327301 -0.005318 0.0
1.337375 -0.004756 0.0
1.346323 -0.004193 0.0
1.353962 -0.003446 0.0
1.359749 -0.002342 0.0
1.362873 -0.000782 0.0
1.362396 0.001259 0.0
1.357421 0.003716 0.0
1.347267 0.006438 0.0
1.331592 0.009237 0.0
1.310431 0.011924 0.0
1.284169 0.014338 0.0
1.253471 0.016359 0.0
1.219207 0.017905 0.0
1.182372 0.018930 0.0
1.144031 0.019412 0.0
1.105272 0.019347 0.0
1.067185 0.018740 0.0
1.030844 0.017601 0.0
0.997307 0.015936 0.0
0.967622 0.013749 0.0
0.942846 0.011027 0.0
0.924093 0.007727 0.0
0.912566 0.003800 0.0
0.909428 -0.000662 0.0
0.915397 -0.005307 0.0
0.930607 -0.009904 0.0
0.954734 -0.014223 0.0
0.986923 -0.017966 0.0
1.025666 -0.020776 0.0
1.068721 -0.022279 0.0
1.113142 -0.022142 0.0
1.155448 -0.020164 0.0
1.192000 -0.016388 0.0
1.219585 -0.011197 0.0
1.236092 -0.005309 0.0
1.240903 0.000498 0.0
1.234506 0.005900 0.0
1.217916 0.010690 0.0
1.192529 0.014698 0.0
1.160010 0.017821 0.0
1.122168 0.020022 0.0
1.080835 0.021312 0.0
1.037794 0.021729 0.0
0.994750 0.021315 0.0
0.953333 0.020102 0.0
0.915124 0.018107 0.0
0.881650 0.015367 0.0
0.854309 0.011973 0.0
0.834223 0.008112 0.0
0.822039 0.004072 0.0
0.817712 0.000255 0.0
0.820305 -0.002848 0.0
0.828375 -0.005222 0.0
0.840670 -0.007073 0.0
0.856366 -0.008624 0.0
0.875056 -0.010066 0.0
0.896657 -0.011535 0.0
0.921288 -0.013096 0.0
0.949105 -0.014720 0.0
0.980105 -0.016280 0.0
1.013943 -0.017557 0.0
1.049765 -0.018265 0.0
1.086116 -0.018086 0.0
1.120924 -0.016721 0.0
1.151614 -0.013969 0.0
1.175438 -0.009854 0.0
1.190036 -0.004744 0.0
1.194047 0.000733 0.0
1.187160 0.006154 0.0
1.169701 0.011305 0.0
1.142506 0.015889 0.0
1.107077 0.019540 0.0
1.065695 0.021842 0.0
1.021457 0.022396 0.0
0.978099 0.020961 0.0
0.939504 0.017634 0.0
0.908934 0.012936 0.0
0.888286 0.007712 0.0
0.877644 0.002929 0.0
0.875164 -0.000450 0.0
0.877389 -0.001774 0.0
0.878297 0.000866 0.0
1.001321 -0.002865 0.0
1.006256 -0.009140 0.0
1.015729 -0.015661 0.0
1.029688 -0.022261 0.0
1.048102 -0.028743 0.0
1.070820 -0.034800 0.0
1.097448 -0.039996 0.0
1.127242 -0.043797 0.0
1.159053 -0.045698 0.0
1.191393 -0.045395 0.0
1.222693 -0.043036 0.0
1.251658 -0.039159 0.0
1.277487 -0.034471 0.0
1.299897 -0.029645 0.0
1.319044 -0.025211 0.0
1.335384 -0.021509 0.0
1.349539 -0.018675 0.0
1.362151 -0.016634 0.0
1.373743 -0.015105 0.0
1.384568 -0.013617 0.0
1.394493 -0.011585 0.0
1.402943 -0.008439 0.0
1.408941 -0.003807 0.0
1.411306 0.002396 0.0
1.408934 0.009926 0.0
1.401035 0.018281 0.0
1.387247 0.026858 0.0
1.367641 0.035070 0.0
1.342673 0.042423 0.0
1.313092 0.048553 0.0
1.279846 0.053222 0.0
1.243992 0.056301 0.0
1.206639 0.057735 0.0
1.168904 0.057518 0.0
1.131891 0.055670 0.0
1.096679 0.052224 0.0
1.064319 0.047209 0.0
1.035827 0.040653 0.0
1.012158 0.032568 0.0
0.994142 0.022956 0.0
0.982388 0.011852 0.0
0.977348 -0.000536 0.0
0.979674 -0.013728 0.0
0.990202 -0.027220 0.0
1.009435 -0.040267 0.0
1.037210 -0.051888 0.0
1.072594 -0.060983 0.0
1.113910 -0.066443 0.0
1.158761 -0.067249 0.0
1.204055 -0.062658 0.0
1.246152 -0.052543 0.0
1.281262 -0.037737 0.0
1.306099 -0.020113 0.0
1.318633 -0.002045 0.0
1.318671 0.014803 0.0
1.307390 0.029658 0.0
1.286481 0.042027 0.0
1.257853 0.051638 0.0
1.223485 0.058414 0.0
1.185323 0.062414 0.0
1.145222 0.063768 0.0
1.104917 0.062625 0.0
1.066010 0.059117 0.0
1.029933 0.053378 0.0
0.997877 0.045627 0.0
0.970664 0.036267 0.0
0.948620 0.025948 0.0
0.931543 0.015497 0.0
0.918925 0.005775 0.0
0.910480 -0.002516 0.0
0.906090 -0.009234 0.0
0.905467 -0.014732 0.0
0.908320 -0.019514 0.0
0.914536 -0.024081 0.0
0.924253 -0.028837 0.0
0.937827 -0.033999 0.0
0.955701 -0.039507 0.0
0.978194 -0.044987 0.0
1.005299 -0.049792 0.0
1.036538 -0.053092 0.0
1.070913 -0.053986 0.0
1.106912 -0.051629 0.0
1.142553 -0.045393 0.0
1.175392 -0.035093 0.0
1.202543 -0.021253 0.0
1.220978 -0.005205 0.0
1.228736 0.011220 0.0
1.225740 0.026695 0.0
1.213093 0.040341 0.0
1.192447 0.051163 0.0
1.165923 0.058124 0.0
1.135969 0.060307 0.0
1.105129 0.057248 0.0
1.075758 0.049313 0.0
1.049721 0.037864 0.0
1.028129 0.025025 0.0
1.011235 0.013154 0.0
0.998674 0.004366 0.0
0.989764 0.000095 0.0
0.983084 0.004769 0.0
1.001208 -0.005393 0.0
1.005961 -0.016301 0.0
1.015396 -0.027407 0.0
1.029574 -0.038652 0.0
1.048609 -0.049801 0.0
1.072530 -0.060380 0.0
1.101109 -0.069622 0.0
1.133651 -0.076507 0.0
1.168839 -0.079988 0.0
1.204700 -0.079306 0.0
1.239036 -0.074762 0.0
1.270142 -0.067504 0.0
1.297122 -0.058934 0.0
1.319825 -0.050296 0.0
1.338641 -0.042522 0.0
1.354298 -0.036195 0.0
1.367698 -0.031543 0.0
1.379764 -0.028444 0.0
1.391280 -0.026403 0.0
1.402704 -0.024568 0.0
1.413965 -0.021821 0.0
1.424341 -0.017029 0.0
1.432528 -0.009404 0.0
1.436976 0.001181 0.0
1.436285 0.014205 0.0
1.429487 0.028698 0.0
1.416179 0.043536 0.0
1.396517 0.057660 0.0
1.371104 0.070214 0.0
1.340848 0.080598 0.0
1.306826 0.088446 0.0
1.270176 0.093580 0.0
1.232037 0.095947 0.0
1.193509 0.095569 0.0
1.155633 0.092509 0.0
1.119387 0.086842 0.0
1.085685 0.078652 0.0
1.055367 0.068021 0.0
1.029204 0.055033 0.0
1.007933 0.039778 0.0
0.992355 0.022361 0.0
0.983427 0.002923 0.0
0.982155 -0.018242 0.0
0.989275 -0.040354 0.0
1.004982 -0.062072 0.0
1.028907 -0.081783 0.0
1.060318 -0.097884 0.0
1.098264 -0.108804 0.0
1.141448 -0.112923 0.0
1.187886 -0.108716 0.0
1.234565 -0.095260 0.0
1.277391 -0.072956 0.0
1.311730 -0.044070 0.0
1.333672 -0.012565 0.0
1.341692 0.017265 0.0
1.336830 0.043338 0.0
1.321202 0.064883 0.0
1.297074 0.081539 0.0
1.266678 0.093278 0.0
1.232091 0.100298 0.0
1.195165 0.102910 0.0
1.157500 0.101453 0.0
1.120428 0.096268 0.0
1.084998 0.087734 0.0
1.051958 0.076368 0.0
1.021770 0.062928 0.0
0.994683 0.048418 0.0
0.970844 0.033942 0.0
0.950361 0.020431 0.0
0.933234 0.008401 0.0
0.919394 -0.001921 0.0
0.908733 -0.010761 0.0
0.901145 -0.018750 0.0
0.896777 -0.026694 0.0
0.896149 -0.035314 0.0
0.900069 -0.045017 0.0
0.909380 -0.055673 0.0
0.924636 -0.066571 0.0
0.945890 -0.076567 0.0
0.972634 -0.084300 0.0
1.003875 -0.088393 0.0
1.038256 -0.087602 0.0
1.074150 -0.080955 0.0
1.109724 -0.067943 0.0
1.142942 -0.048772 0.0
1.171531 -0.024710 0.0
1.192919 0.001578 0.0
1.205393 0.026860 0.0
1.208974 0.049242 0.0
1.204638 0.067245 0.0
1.193730 0.079475 0.0
1.177775 0.084864 0.0
1.158284 0.083021 0.0
1.136625 0.074570 0.0
1.114018 0.061251 0.0
1.091619 0.045629 0.0
1.070563 0.030500 0.0
1.051834 0.018310 0.0
1.036022 0.010874 0.0
1.024081 0.012612 0.0
1.001157 -0.007759 0.0
1.005785 -0.023317 0.0
1.015130 -0.039170 0.0
1.029460 -0.055397 0.0
1.049170 -0.071801 0.0
1.074648 -0.087780 0.0
1.106035 -0.102188 0.0
1.142844 -0.113292 0.0
1.183605 -0.119153 0.0
1.225372 -0.117769 0.0
1.264566 -0.109830 0.0
1.298740 -0.097716 0.0
1.326982 -0.083944 0.0
1.349495 -0.070501 0.0
1.367117 -0.058755 0.0
1.381023 -0.049525 0.0
1.392546 -0.043136 0.0
1.403052 -0.039423 0.0
1.413780 -0.037670 0.0
1.425602 -0.036548 0.0
1.438678 -0.034178 0.0
1.452142 -0.028511 0.0
1.464072 -0.018040 0.0
1.471991 -0.002549 0.0
1.473735 0.016881 0.0
1.467988 0.038566 0.0
1.454326 0.060639 0.0
1.433113 0.081432 0.0
1.405283 0.099685 0.0
1.372083 0.114583 0.0
1.334873 0.125694 0.0
1.294995 0.132860 0.0
1.253705 0.136096 0.0
1.212146 0.135508 0.0
1.171349 0.131243 0.0
1.132245 0.123458 0.0
1.095677 0.112307 0.0
1.062421 0.097940 0.0
1.033217 0.080482 0.0
1.008808 0.060008 0.0
0.989990 0.036528 0.0
0.977552 0.010122 0.0
0.972078 -0.018696 0.0
0.973681 -0.048624 0.0
0.982019 -0.077846 0.0
0.996688 -0.104603 0.0
1.017697 -0.127483 0.0
1.045542 -0.144995 0.0
1.080711 -0.155085 0.0
1.122938 -0.155220 0.0
1.170595 -0.143092 0.0
1.220355 -0.117710 0.0
1.267193 -0.080493 0.0
1.304989 -0.035880 0.0
1.328397 0.009152 0.0
1.336003 0.048706 0.0
1.329898 0.081248 0.0
1.312863 0.106336 0.0
1.287671 0.124069 0.0
1.256862 0.134903 0.0
1.222621 0.139472 0.0
1.186717 0.138459 0.0
1.150500 0.132551 0.0
1.114925 0.122457 0.0
1.080619 0.108990 0.0
1.047989 0.093124 0.0
1.017331 0.075969 0.0
0.988894 0.058668 0.0
0.962845 0.042236 0.0
0.939188 0.027380 0.0
0.917766 0.014362 0.0
0.898471 0.002912 0.0
0.881532 -0.007895 0.0
0.867719 -0.019367 0.0
0.858311 -0.032605 0.0
0.854720 -0.048057 0.0
0.858014 -0.065238 0.0
0.868583 -0.082832 0.0
0.886102 -0.099080 0.0
0.909724 -0.112153 0.0
0.938305 -0.120363 0.0
0.970566 -0.122273 0.0
1.005165 -0.116778 0.0
1.040720 -0.103250 0.0
1.075791 -0.081754 0.0
1.108818 -0.053342 0.0
1.137975 -0.020336 0.0
1.160990 0.013284 0.0
1.176501 0.043725 0.0
1.184654 0.068945 0.0
1.186043 0.087293 0.0
1.181423 0.097620 0.0
1.171603 0.099577 0.0
1.157428 0.093848 0.0
1.139856 0.082152 0.0
1.120042 0.066941 0.0
1.099339 0.050947 0.0
1.079179 0.036753 0.0
1.060926 0.026494 0.0
1.046623 0.023237 0.0
1.001087 -0.010003 0.0
1.005468 -0.030081 0.0
1.014448 -0.050731 0.0
1.028556 -0.072273 0.0
1.048604 -0.094684 0.0
1.075585 -0.117357 0.0
1.110379 -0.138792 0.0
1.153098 -0.156216 0.0
1.202526 -0.166417 0.0
1.253669 -0.163414 0.0
1.299727 -0.149438 0.0
1.337190 -0.129744 0.0
1.365676 -0.108644 0.0
1.386292 -0.088931 0.0
1.400660 -0.072315 0.0
1.410566 -0.059777 0.0
1.417875 -0.051716 0.0
1.424505 -0.047978 0.0
1.432365 -0.047703 0.0
1.443096 -0.049068 0.0
1.457516 -0.049153 0.0
1.474915 -0.044398 0.0
1.492673 -0.031841 0.0
1.506712 -0.010705 0.0
1.513191 0.016815 0.0
1.509992 0.047578 0.0
1.496686 0.078595 0.0
1.474002 0.107373 0.0
1.443382 0.132194 0.0
1.406563 0.152093 0.0
1.365291 0.166667 0.0
1.321175 0.175881 0.0
1.275640 0.179901 0.0
1.229921 0.178981 0.0
1.185092 0.173396 0.0
1.142093 0.163407 0.0
1.101769 0.149249 0.0
1.064897 0.131126 0.0
1.032193 0.109205 0.0
1.004283 0.083604 0.0
0.981585 0.054449 0.0
0.964122 0.022102 0.0
0.951401 -0.012480 0.0
0.942659 -0.047700 0.0
0.937367 -0.081816 0.0
0.935917 -0.113852 0.0
0.940119 -0.143445 0.0
0.952640 -0.169399 0.0
0.975663 -0.188874 0.0
1.009887 -0.197882 0.0
1.054273 -0.192472 0.0
1.106186 -0.170004 0.0
1.161473 -0.130324 0.0
1.214384 -0.076756 0.0
1.257716 -0.016712 0.0
1.285454 0.039225 0.0
1.296656 0.085634 0.0
1.293882 0.121759 0.0
1.279987 0.147734 0.0
1.257762 0.164272 0.0
1.229725 0.172382 0.0
1.197991 0.173186 0.0
1.164223 0.167809 0.0
1.129634 0.157363 0.0
1.095059 0.142965 0.0
1.061056 0.125781 0.0
1.028001 0.107024 0.0
0.996112 0.087940 0.0
0.965422 0.069703 0.0
0.935812 0.053179 0.0
0.907221 0.038577 0.0
0.880022 0.025192 0.0
0.855292 0.011494 0.0
0.834666 -0.004317 0.0
0.819937 -0.023518 0.0
0.812569 -0.046185 0.0
0.813215 -0.071050 0.0
0.821625 -0.095998 0.0
0.836943 -0.118751 0.0
0.858073 -0.137234 0.0
0.883897 -0.149688 0.0
0.913356 -0.154668 0.0
0.945446 -0.151071 0.0
0.979182 -0.138248 0.0
1.013558 -0.116203 0.0
1.047482 -0.085844 0.0
1.079694 -0.049202 0.0
1.108503 -0.009674 0.0
1.131878 0.027798 0.0
1.148753 0.059845 0.0
1.159151 0.084605 0.0
1.163270 0.100809 0.0
1.161446 0.108032 0.0
1.154184 0.106830 0.0
1.142227 0.098700 0.0
1.126606 0.085828 0.0
1.108629 0.070740 0.0
1.089805 0.055943 0.0
1.071770 0.043591 0.0
1.056948 0.035265 0.0
1.000949 -0.012039 0.0
1.004802 -0.036279 0.0
1.012841 -0.061553 0.0
1.025871 -0.088589 0.0
1.045238 -0.117782 0.0
1.072829 -0.148830 0.0
1.110872 -0.180155 0.0
1.160945 -0.207645 0.0
1.223837 -0.227309 0.0
1.289491 -0.219318 0.0
1.343264 -0.193366 0.0
1.381490 -0.161505 0.0
1.406353 -0.130232 0.0
1.420971 -0.102577 0.0
1.428057 -0.080122 0.0
1.429983 -0.063802 0.0
1.428998 -0.054016 0.0
1.427435 -0.050746 0.0
1.427924 -0.053283 0.0
1.433290 -0.059584 0.0
1.445787 -0.065555 0.0
1.465776 -0.065384 0.0
1.490663 -0.053501 0.0
1.514657 -0.027079 0.0
1.530478 0.010888 0.0
1.533643 0.053539 0.0
1.523636 0.095948 0.0
1.501812 0.134528 0.0
1.470358 0.167113 0.0
1.431621 0.192730 0.0
1.387755 0.211168 0.0
1.340613 0.222636 0.0
1.291759 0.227534 0.0
1.242511 0.226314 0.0
1.193999 0.219404 0.0
1.147217 0.207179 0.0
1.103067 0.189951 0.0
1.062374 0.167990 0.0
1.025840 0.141578 0.0
0.993863 0.111118 0.0
0.966184 0.077311 0.0
0.941548 0.041338 0.0
0.917845 0.004708 0.0
0.893328 -0.031629 0.0
0.868502 -0.067771 0.0
0.846829 -0.104774 0.0
0.833599 -0.143495 0.0
0.833418 -0.181688 0.0
0.848133 -0.214323 0.0
0.877033 -0.235557 0.0
0.918083 -0.240232 0.0
0.968698 -0.224773 0.0
1.025819 -0.187962 0.0
1.085565 -0.131774 0.0
1.142698 -0.062158 0.0
1.189686 0.009946 0.0
1.221013 0.072385 0.0
1.236677 0.122117 0.0
1.238910 0.159039 0.0
1.230179 0.183923 0.0
1.212920 0.198028 0.0
1.189354 0.202840 0.0
1.161372 0.199905 0.0
1.130490 0.190738 0.0
1.097852 0.176803 0.0
1.064276 0.159522 0.0
1.030280 0.140334 0.0
0.996088 0.120711 0.0
0.961681 0.102029 0.0
0.927008 0.085136 0.0
0.892417 0.069801 0.0
0.859096 0.054487 0.0
0.829136 0.036887 0.0
0.804998 0.015054 0.0
0.788534 -0.011696 0.0
0.780444 -0.042549 0.0
0.780452 -0.075340 0.0
0.787686 -0.107352 0.0
0.801054 -0.136083 0.0
0.819500 -0.159477 0.0
0.842108 -0.175876 0.0
0.868100 -0.183931 0.0
0.896794 -0.182591 0.0
0.927539 -0.171210 0.0
0.959661 -0.149739 0.0
0.992394 -0.118966 0.0
1.024816 -0.080713 0.0
1.055765 -0.037922 0.0
1.083415 0.005021 0.0
1.105957 0.043205 0.0
1.122632 0.074172 0.0
1.133255 0.096500 0.0
1.137832 0.109589 0.0
1.136599 0.113767 0.0
1.130086 0.110234 0.0
1.119136 0.100864 0.0
1.104902 0.087916 0.0
1.088807 0.073686 0.0
1.072505 0.060186 0.0
1.058405 0.047591 0.0
1.000705 -0.013693 0.0
1.003591 -0.041362 0.0
1.009759 -0.070676 0.0
1.020228 -0.102967 0.0
1.036860 -0.139403 0.0
1.062654 -0.180595 0.0
1.101986 -0.225765 0.0
1.159599 -0.269721 0.0
1.243600 -0.312126 0.0
1.329850 -0.286405 0.0
1.385976 -0.236178 0.0
1.415367 -0.186309 0.0
1.427772 -0.142696 0.0
1.429327 -0.106286 0.0
1.423384 -0.077557 0.0
1.412254 -0.057163 0.0
1.397895 -0.045311 0.0
1.382320 -0.042312 0.0
1.368348 -0.048234 0.0
1.360112 -0.061762 0.0
1.362304 -0.078066 0.0
1.377879 -0.088437 0.0
1.406341 -0.083798 0.0
1.442556 -0.056991 0.0
1.475407 -0.007871 0.0
1.493846 0.050694 0.0
1.494887 0.107759 0.0
1.481009 0.158419 0.0
1.455414 0.200271 0.0
1.421070 0.232653 0.0
1.380411 0.255771 0.0
1.335383 0.270203 0.0
1.287579 0.276626 0.0
1.238354 0.275696 0.0
1.188904 0.267984 0.0
1.140322 0.253963 0.0
1.093629 0.234010 0.0
1.049774 0.208479 0.0
1.009489 0.177907 0.0
0.972861 0.143395 0.0
0.938632 0.106942 0.0
0.903848 0.071127 0.0
0.864901 0.037571 0.0
0.820344 0.004583 0.0
0.774517 -0.033330 0.0
0.737489 -0.080513 0.0
0.717885 -0.134923 0.0
0.717375 -0.189570 0.0
0.732996 -0.236776 0.0
0.761183 -0.270191 0.0
0.799427 -0.284893 0.0
0.846059 -0.277359 0.0
0.899521 -0.245960 0.0
0.957767 -0.191770 0.0
1.017768 -0.119297 0.0
1.074846 -0.036980 0.0
1.121783 0.041046 0.0
1.154196 0.105379 0.0
1.172723 0.155018 0.0
1.178929 0.190468 0.0
1.174691 0.212980 0.0
1.161939 0.224206 0.0
1.142493 0.225965 0.0
1.117957 0.220096 0.0
1.089652 0.208387 0.0
1.058586 0.192581 0.0
1.025418 0.174440 0.0
0.990473 0.155741 0.0
0.953899 0.137980 0.0
0.916053 0.121705 0.0
0.878003 0.105874 0.0
0.841780 0.087958 0.0
0.810041 0.065114 0.0
0.785232 0.035774 0.0
0.768788 0.000493 0.0
0.760771 -0.038630 0.0
0.760300 -0.078795 0.0
0.766232 -0.117063 0.0
0.777469 -0.150977 0.0
0.793074 -0.178635 0.0
0.812299 -0.198551 0.0
0.834569 -0.209517 0.0
0.859438 -0.210567 0.0
0.886525 -0.201066 0.0
0.915429 -0.180908 0.0
0.945649 -0.150751 0.0
0.976518 -0.112219 0.0
1.007130 -0.067978 0.0
1.036240 -0.021682 0.0
1.061933 0.021672 0.0
1.082674 0.058289 0.0
1.097926 0.086508 0.0
1.107431 0.105499 0.0
1.111203 0.115316 0.0
1.109559 0.116843 0.0
1.103135 0.111629 0.0
1.092889 0.101632 0.0
1.080087 0.088867 0.0
1.066273 0.075122 0.0
1.053648 0.059380 0.0
1.000329 -0.014728 0.0
1.001690 -0.044575 0.0
1.004764 -0.076705 0.0
1.010554 -0.113196 0.0
1.021123 -0.156374 0.0
1.040367 -0.208663 0.0
1.075301 -0.271962 0.0
1.136540 -0.342375 0.0
1.251378 -0.438311 0.0
1.358807 -0.353900 0.0
1.394354 -0.260356 0.0
1.393650 -0.190818 0.0
1.380294 -0.137236 0.0
1.361147 -0.094154 0.0
1.337574 -0.060172 0.0
1.310287 -0.036131 0.0
1.279792 -0.021489 0.0
1.246121 -0.016887 0.0
1.210354 -0.023922 0.0
1.176982 -0.044466 0.0
1.154540 -0.075112 0.0
1.151269 -0.103694 0.0
1.171809 -0.117542 0.0
1.215399 -0.103052 0.0
1.272469 -0.051731 0.0
1.322511 0.026072 0.0
1.351492 0.102358 0.0
1.361115 0.168074 0.0
1.355981 0.221344 0.0
1.339523 0.262380 0.0
1.314171 0.292055 0.0
1.281766 0.311353 0.0
1.243863 0.321183 0.0
1.201889 0.322339 0.0
1.157191 0.315488 0.0
1.111063 0.301170 0.0
1.064756 0.279804 0.0
1.019451 0.251846 0.0
0.975875 0.218401 0.0
0.933054 0.182350 0.0
0.886838 0.148432 0.0
0.831458 0.119800 0.0
0.766307 0.092997 0.0
0.701541 0.058479 0.0
0.652368 0.007774 0.0
0.627119 -0.059340 0.0
0.623555 -0.132927 0.0
0.634718 -0.202219 0.0
0.655092 -0.260122 0.0
0.682113 -0.302054 0.0
0.715206 -0.324367 0.0
0.754602 -0.323912 0.0
0.800416 -0.298683 0.0
0.852063 -0.248939 0.0
0.907987 -0.178054 0.0
0.965473 -0.092786 0.0
1.019400 -0.004014 0.0
1.063505 0.073920 0.0
1.095009 0.136447 0.0
1.114364 0.183478 0.0
1.122602 0.215971 0.0
1.121067 0.235501 0.0
1.111224 0.243958 0.0
1.094506 0.243358 0.0
1.072198 0.235738 0.0
1.045342 0.223151 0.0
1.014680 0.207699 0.0
0.980701 0.191405 0.0
0.943908 0.175684 0.0
0.905260 0.160494 0.0
0.866565 0.143830 0.0
0.830399 0.122390 0.0
0.799465 0.093355 0.0
0.775743 0.056064 0.0
0.760035 0.012356 0.0
0.752059 -0.034501 0.0
0.750885 -0.081279 0.0
0.755408 -0.125035 0.0
0.764610 -0.163443 0.0
0.777611 -0.194776 0.0
0.793716 -0.217741 0.0
0.812433 -0.231315 0.0
0.833462 -0.234668 0.0
0.856624 -0.227214 0.0
0.881759 -0.208798 0.0
0.908617 -0.179938 0.0
0.936761 -0.142045 0.0
0.965517 -0.097519 0.0
0.993925 -0.049658 0.0
1.020509 -0.002629 0.0
1.043507 0.038852 0.0
1.061778 0.072422 0.0
1.074860 0.096998 0.0
1.082566 0.112340 0.0
1.085012 0.119017 0.0
1.082633 0.118257 0.0
1.076186 0.111697 0.0
1.066749 0.101041 0.0
1.055703 0.087809 0.0
1.044960 0.070059 0.0
0.999824 -0.014881 0.0
0.999115 -0.045074 0.0
0.997833 -0.077998 0.0
0.996543 -0.116404 0.0
0.996717 -0.163908 0.0
1.001870 -0.225525 0.0
1.020250 -0.308414 0.0
1.069905 -0.416818 0.0
1.214543 -0.623344 0.0
1.318194 -0.379947 0.0
1.279630 -0.231293 0.0
1.219268 -0.158815 0.0
1.170687 -0.107302 0.0
1.129830 -0.064084 0.0
1.090953 -0.027792 0.0
1.048118 0.001611 0.0
0.998361 0.021022 0.0
0.942924 0.029710 0.0
0.883208 0.024964 0.0
0.821751 0.001478 0.0
0.767919 -0.044782 0.0
0.742137 -0.104971 0.0
0.759597 -0.154266 0.0
0.816790 -0.167111 0.0
0.900273 -0.128224 0.0
0.993357 -0.040561 0.0
1.071584 0.061783 0.0
1.123571 0.147039 0.0
1.155958 0.215127 0.0
1.172840 0.268173 0.0
1.176496 0.307958 0.0
1.168581 0.335771 0.0
1.150645 0.352603 0.0
1.124267 0.359271 0.0
1.091036 0.356485 0.0
1.052477 0.344860 0.0
1.009900 0.324997 0.0
0.963879 0.297979 0.0
0.913046 0.266677 0.0
0.853389 0.236551 0.0
0.781487 0.212348 0.0
0.701825 0.190925 0.0
0.629354 0.159495 0.0
0.580309 0.105792 0.0
0.560401 0.029541 0.0
0.562965 -0.058423 0.0
0.577332 -0.144647 0.0
0.596572 -0.220903 0.0
0.617967 -0.283207 0.0
0.641081 -0.329104 0.0
0.666803 -0.356133 0.0
0.696720 -0.361460 0.0
0.732356 -0.342585 0.0
0.774425 -0.298753 0.0
0.822448 -0.232187 0.0
0.874745 -0.148435 0.0
0.928397 -0.055944 0.0
0.977682 0.032460 0.0
1.017520 0.106565 0.0
1.046622 0.164903 0.0
1.065058 0.207872 0.0
1.073459 0.236735 0.0
1.072768 0.253258 0.0
1.064071 0.259474 0.0
1.048437 0.257564 0.0
1.026802 0.249816 0.0
0.999918 0.238581 0.0
0.968463 0.225957 0.0
0.933353 0.213036 0.0
0.896137 0.199006 0.0
0.859141 0.181010 0.0
0.825100 0.155417 0.0
0.796410 0.119952 0.0
0.774506 0.075093 0.0
0.759778 0.023764 0.0
0.751881 -0.030038 0.0
0.750072 -0.082758 0.0
0.753437 -0.131444 0.0
0.761032 -0.173832 0.0
0.771971 -0.208327 0.0
0.785510 -0.233834 0.0
0.801139 -0.249568 0.0
0.818609 -0.254913 0.0
0.837883 -0.249405 0.0
0.859019 -0.232878 0.0
0.882014 -0.205711 0.0
0.906681 -0.169084 0.0
0.932561 -0.125116 0.0
0.958897 -0.076807 0.0
0.984631 -0.027799 0.0
1.008144 0.017512 0.0
1.027959 0.055676 0.0
1.043336 0.085284 0.0
1.053893 0.105792 0.0
1.059557 0.117455 0.0
1.060570 0.121184 0.0
1.057496 0.118291 0.0
1.051222 0.110157 0.0
1.042940 0.098021 0.0
1.034254 0.079276 0.0
0.999246 -0.013951 0.0
0.996147 -0.042195 0.0
0.989703 -0.073151 0.0
0.979558 -0.109816 0.0
0.965424 -0.156536 0.0
0.947743 -0.220369 0.0
0.929954 -0.314161 0.0
0.926968 -0.457740 0.0
1.024834 -0.824926 0.0
1.032516 -0.187337 0.0
0.858820 -0.099001 0.0
0.727771 -0.089412 0.0
0.661188 -0.061541 0.0
0.610993 -0.018792 0.0
0.546246 0.030539 0.0
0.463169 0.069191 0.0
0.374945 0.091423 0.0
0.293605 0.096086 0.0
0.231815 0.080095 0.0
0.202019 0.037600 0.0
0.211332 -0.036386 0.0
0.254862 -0.131115 0.0
0.323830 -0.214551 0.0
0.413261 -0.253451 0.0
0.516983 -0.229090 0.0
0.629494 -0.145289 0.0
0.742514 -0.024735 0.0
0.837291 0.086792 0.0
0.907163 0.173116 0.0
0.958883 0.241582 0.0
0.994347 0.295428 0.0
1.014504 0.336059 0.0
1.020470 0.364285 0.0
1.013645 0.380792 0.0
0.995559 0.386280 0.0
0.967633 0.381551 0.0
0.930677 0.367840 0.0
0.884014 0.347821 0.0
0.825172 0.326511 0.0
0.752802 0.308745 0.0
0.672842 0.292017 0.0
0.600550 0.263211 0.0
0.551943 0.208287 0.0
0.532423 0.125565 0.0
0.535780 0.026319 0.0
0.551859 -0.073843 0.0
0.572854 -0.164587 0.0
0.594521 -0.241870 0.0
0.614929 -0.304044 0.0
0.633724 -0.350176 0.0
0.651941 -0.378998 0.0
0.671763 -0.388334 0.0
0.695865 -0.375448 0.0
0.726378 -0.338472 0.0
0.764046 -0.278159 0.0
0.808029 -0.198743 0.0
0.856183 -0.107443 0.0
0.904735 -0.013877 0.0
0.948313 0.069486 0.0
0.983335 0.137857 0.0
1.008973 0.190843 0.0
1.025134 0.229204 0.0
1.032195 0.254419 0.0
1.030800 0.268405 0.0
1.021699 0.273368 0.0
1.005628 0.271717 0.0
0.983300 0.265891 0.0
0.955561 0.257841 0.0
0.923697 0.248126 0.0
0.889677 0.235152 0.0
0.856045 0.215491 0.0
0.825383 0.185639 0.0
0.799646 0.144158 0.0
0.779855 0.092581 0.0
0.766253 0.034607 0.0
0.758631 -0.025361 0.0
0.756502 -0.083497 0.0
0.759144 -0.136711 0.0
0.765675 -0.182691 0.0
0.775164 -0.219896 0.0
0.786776 -0.247416 0.0
0.799906 -0.264745 0.0
0.814270 -0.271569 0.0
0.829896 -0.267650 0.0
0.847015 -0.252888 0.0
0.865873 -0.227555 0.0
0.886553 -0.192586 0.0
0.908847 -0.149786 0.0
0.932212 -0.101839 0.0
0.955795 -0.052084 0.0
0.978368 -0.004290 0.0
0.998455 0.037577 0.0
1.014957 0.071504 0.0
1.027328 0.096644 0.0
1.035325 0.112942 0.0
1.039014 0.120993 0.0
1.038781 0.121790 0.0
1.035327 0.116387 0.0
1.029650 0.105750 0.0
1.023050 0.086833 0.0
0.998702 -0.011900 0.0
0.993347 -0.035791 0.0
0.981973 -0.061737 0.0
0.963121 -0.092233 0.0
0.934089 -0.130955 0.0
0.889910 -0.184089 0.0
0.820775 -0.263518 0.0
0.708638 -0.393261 0.0
0.319476 -0.700468 0.0
-0.472953 0.240869 0.0
-0.472953 0.000000 0.0
-0.033510 -0.023540 0.0
-0.067760 -0.036550 0.0
-0.049573 -0.011775 0.0
-0.005870 0.044567 0.0
0.020720 0.111651 0.0
0.008112 0.149794 0.0
-0.024156 0.151323 0.0
-0.054739 0.117232 0.0
-0.070200 0.045720 0.0
-0.063407 -0.060612 0.0
-0.032357 -0.181469 0.0
0.021828 -0.287349 0.0
0.099169 -0.347425 0.0
0.197354 -0.337024 0.0
0.309240 -0.261751 0.0
0.431465 -0.143518 0.0
0.554279 -0.012017 0.0
0.658470 0.097863 0.0
0.739419 0.184165 0.0
0.801974 0.254826 0.0
0.846895 0.311583 0.0
0.874806 0.354884 0.0
0.886681 0.385144 0.0
0.883637 0.403056 0.0
0.866507 0.409831 0.0
0.835211 0.407811 0.0
0.788602 0.401122 0.0
0.726588 0.394066 0.0
0.654952 0.385196 0.0
0.587735 0.362743 0.0
0.540871 0.311640 0.0
0.521575 0.227760 0.0
0.525673 0.121514 0.0
0.544101 0.008584 0.0
0.568768 -0.096854 0.0
0.594414 -0.188217 0.0
0.618119 -0.263613 0.0
0.638181 -0.322770 0.0
0.653970 -0.366035 0.0
0.666141 -0.393527 0.0
0.676817 -0.404303 0.0
0.689307 -0.396071 0.0
0.707106 -0.366160 0.0
0.732537 -0.313569 0.0
0.765928 -0.240706 0.0
0.805762 -0.153468 0.0
0.849319 -0.059960 0.0
0.892002 0.029307 0.0
0.929282 0.105733 0.0
0.959057 0.167553 0.0
0.980530 0.214859 0.0
0.993516 0.248717 0.0
0.998200 0.270819 0.0
0.994967 0.283288 0.0
0.984318 0.288516 0.0
0.966900 0.288838 0.0
0.943686 0.285846 0.0
0.916219 0.279453 0.0
0.886665 0.267400 0.0
0.857513 0.246027 0.0
0.830995 0.212284 0.0
0.808628 0.165617 0.0
0.791180 0.108361 0.0
0.778926 0.044683 0.0
0.771880 -0.020770 0.0
0.769798 -0.083879 0.0
0.772120 -0.141293 0.0
0.778020 -0.190539 0.0
0.786536 -0.230054 0.0
0.796735 -0.259070 0.0
0.807890 -0.277376 0.0
0.819617 -0.285028 0.0
0.831925 -0.282125 0.0
0.845150 -0.268755 0.0
0.859757 -0.245154 0.0
0.876116 -0.212026 0.0
0.894306 -0.170830 0.0
0.914033 -0.123888 0.0
0.934644 -0.074229 0.0
0.955191 -0.025265 0.0
0.974361 0.019295 0.0
0.990928 0.056717 0.0
1.004158 0.085829 0.0
1.013651 0.106268 0.0
1.019314 0.118315 0.0
1.021369 0.122647 0.0
1.020342 0.120011 0.0
1.017037 0.111107 0.0
1.012466 0.092647 0.0
0.998313 -0.008915 0.0
0.991361 -0.026468 0.0
0.976554 -0.044880 0.0
0.951793 -0.065477 0.0
0.913027 -0.089914 0.0
0.852397 -0.120320 0.0
0.753362 -0.159117 0.0
0.576867 -0.209029 0.0
0.231161 -0.247802 0.0
0.000000 0.240869 0.0
-0.000000 -0.000000 0.0
0.000000 0.000000 0.0
-0.017351 -0.017905 0.0
-0.048932 -0.016474 0.0
-0.074706 0.031337 0.0
-0.100960 0.124545 0.0
-0.135476 0.184023 0.0
-0.175766 0.189652 0.0
-0.211026 0.144746 0.0
-0.229738 0.052380 0.0
-0.225151 -0.078652 0.0
-0.199752 -0.219878 0.0
-0.160539 -0.342337 0.0
-0.107976 -0.422342 0.0
-0.031806 -0.436462 0.0
0.069418 -0.375422 0.0
0.185877 -0.268531 0.0
0.313437 -0.137379 0.0
0.438588 -0.006117 0.0
0.543054 0.102730 0.0
0.624861 0.191900 0.0
0.687831 0.266618 0.0
0.732469 0.327299 0.0
0.759192 0.374131 0.0
0.768396 0.407908 0.0
0.760089 0.430416 0.0
0.733849 0.444762 0.0
0.690258 0.454371 0.0
0.634381 0.458708 0.0
0.578259 0.448311 0.0
0.537035 0.408070 0.0
0.519827 0.330385 0.0
0.525285 0.222853 0.0
0.546132 0.101477 0.0
0.574891 -0.018567 0.0
0.605773 -0.125253 0.0
0.635067 -0.214758 0.0
0.660567 -0.286278 0.0
0.680760 -0.340359 0.0
0.694825 -0.378299 0.0
0.702898 -0.401508 0.0
0.706498 -0.410598 0.0
0.708760 -0.404529 0.0
0.713935 -0.380676 0.0
0.725968 -0.336516 0.0
0.746923 -0.272105 0.0
0.776391 -0.191372 0.0
0.812063 -0.101285 0.0
0.850335 -0.010323 0.0
0.886725 0.071694 0.0
0.917883 0.140658 0.0
0.942346 0.195819 0.0
0.959394 0.237723 0.0
0.968769 0.267754 0.0
0.970505 0.287850 0.0
0.964870 0.300238 0.0
0.952440 0.306965 0.0
0.934265 0.309107 0.0
0.912004 0.305921 0.0
0.887810 0.294681 0.0
0.863906 0.271802 0.0
0.842086 0.234847 0.0
0.823485 0.184020 0.0
0.808725 0.122165 0.0
0.798177 0.053682 0.0
0.792070 -0.016615 0.0
0.790365 -0.084246 0.0
0.792630 -0.145513 0.0
0.798107 -0.197697 0.0
0.805846 -0.239151 0.0
0.814868 -0.269195 0.0
0.824343 -0.287882 0.0
0.833761 -0.295667 0.0
0.843045 -0.293080 0.0
0.852545 -0.280525 0.0
0.862883 -0.258329 0.0
0.874697 -0.227023 0.0
0.888385 -0.187711 0.0
0.903947 -0.142296 0.0
0.920961 -0.093446 0.0
0.938663 -0.044297 0.0
0.955981 0.001839 0.0
0.971727 0.041861 0.0
0.984988 0.074194 0.0
0.995233 0.098165 0.0
1.002234 0.113753 0.0
1.006060 0.121328 0.0
1.007072 0.121345 0.0
1.005885 0.114265 0.0
1.003239 0.096705 0.0
0.998157 -0.005386 0.0
0.990596 -0.015484 0.0
0.974613 -0.025074 0.0
0.948247 -0.034156 0.0
0.908005 -0.042227 0.0
0.848105 -0.047476 0.0
0.759984 -0.044805 0.0
0.632680 -0.019541 0.0
0.474724 0.070763 0.0
0.195855 0.176759 0.0
0.000000 0.000000 0.0
-0.000000 -0.000000 0.0
0.000000 0.000000 0.0
-0.001676 -0.001123 0.0
-0.029732 0.069263 0.0
-0.089662 0.172804 0.0
-0.152350 0.232967 0.0
-0.204647 0.233296 0.0
-0.241771 0.173485 0.0
-0.255715 0.056298 0.0
-0.243201 -0.099671 0.0
-0.215042 -0.252416 0.0
-0.184620 -0.379434 0.0
-0.154949 -0.467479 0.0
-0.118603 -0.503840 0.0
-0.057057 -0.470815 0.0
0.034413 -0.381067 0.0
0.144977 -0.262967 0.0
0.266112 -0.126816 0.0
0.381119 0.003956 0.0
0.475858 0.114128 0.0
0.549808 0.207470 0.0
0.605103 0.286513 0.0
0.641750 0.351546 0.0
0.659491 0.403548 0.0
0.658072 0.444502 0.0
0.638254 0.476734 0.0
0.604144 0.500101 0.0
0.565352 0.507648 0.0
0.535166 0.485678 0.0
0.523666 0.423427 0.0
0.532320 0.323582 0.0
0.556093 0.200425 0.0
0.588960 0.070191 0.0
0.625329 -0.052407 0.0
0.660632 -0.157597 0.0
0.692227 -0.243301 0.0
0.718405 -0.309413 0.0
0.738024 -0.357035 0.0
0.750420 -0.388083 0.0
0.755493 -0.404870 0.0
0.754060 -0.409403 0.0
0.748411 -0.402337 0.0
0.742529 -0.382162 0.0
0.741278 -0.345813 0.0
0.748587 -0.291073 0.0
0.765844 -0.219129 0.0
0.791718 -0.135075 0.0
0.823181 -0.046269 0.0
0.855999 0.038433 0.0
0.886267 0.112492 0.0
0.911746 0.174043 0.0
0.931201 0.222997 0.0
0.943965 0.260342 0.0
0.949761 0.287731 0.0
0.948663 0.307090 0.0
0.941181 0.320026 0.0
0.928385 0.327017 0.0
0.911915 0.326741 0.0
0.893733 0.316237 0.0
0.875672 0.292211 0.0