# vtk DataFile Version 3.0
Vector Field
ASCII
DATASET RECTILINEAR_GRID
DIMENSIONS 100 26 1
X_COORDINATES 100 double
0.050000 0.150000 0.250000 0.350000 0.450000 0.550000 0.650000 0.750000 0.850000 0.950000 1.050000 1.150000 1.250000 1.350000 1.450000 1.550000 1.650000 1.750000 1.850000 1.950000 2.050000 2.150000 2.250000 2.350000 2.450000 2.550000 2.650000 2.750000 2.850000 2.950000 3.050000 3.150000 3.250000 3.350000 3.450000 3.550000 3.650000 3.750000 3.850000 3.950000 4.050000 4.150000 4.250000 4.350000 4.450000 4.550000 4.650000 4.750000 4.850000 4.950000 5.050000 5.150000 5.250000 5.350000 5.450000 5.550000 5.650000 5.750000 5.850000 5.950000 6.050000 6.150000 6.250000 6.350000 6.450000 6.550000 6.650000 6.750000 6.850000 6.950000 7.050000 7.150000 7.250000 7.350000 7.450000 7.550000 7.650000 7.750000 7.850000 7.950000 8.050000 8.150000 8.250000 8.350000 8.450000 8.550000 8.650000 8.750000 8.850000 8.950000 9.050000 9.150000 9.250000 9.350000 9.450000 9.550000 9.650000 9.750000 9.850000 9.950000 
Y_COORDINATES 26 double
0.050000 0.150000 0.250000 0.350000 0.450000 0.550000 0.650000 0.750000 0.850000 0.950000 1.050000 1.150000 1.250000 1.350000 1.450000 1.550000 1.650000 1.750000 1.850000 1.950000 2.050000 2.150000 2.250000 2.350000 2.450000 2.550000 
Z_COORDINATES 1 double
0.0
POINT_DATA 2600
VECTORS Vektorfeld double
1.000838 -0.000838 0.0
1.004626 -0.002950 0.0
1.012769 -0.005193 0.0
1.025407 -0.007446 0.0
1.042467 -0.009614 0.0
1.063658 -0.011577 0.0
1.088411 -0.013177 0.0
1.115823 -0.014235 0.0
1.144647 -0.014589 0.0
1.173393 -0.014157 0.0
1.200544 -0.012993 0.0
1.224817 -0.011280 0.0
1.245362 -0.009265 0.0
1.261820 -0.007193 0.0
1.274289 -0.005276 0.0
1.283235 -0.003670 0.0
1.289381 -0.002475 0.0
1.293587 -0.001731 0.0
1.296743 -0.001425 0.0
1.299648 -0.001480 0.0
1.302883 -0.001755 0.0
1.306688 -0.002051 0.0
1.310870 -0.002131 0.0
1.314777 -0.001776 0.0
1.317407 -0.000854 0.0
1.317600 0.000660 0.0
1.314246 0.002694 0.0
1.306483 0.005069 0.0
1.293835 0.007579 0.0
1.276227 0.010029 0.0
1.253934 0.012263 0.0
1.227500 0.014171 0.0
1.197642 0.015687 0.0
1.165174 0.016781 0.0
1.130942 0.017451 0.0
1.095783 0.017708 0.0
1.060503 0.017572 0.0
1.025865 0.017065 0.0
0.992590 0.016209 0.0
0.961349 0.015032 0.0
0.932738 0.013579 0.0
0.907243 0.011916 0.0
0.885190 0.010136 0.0
0.866714 0.008340 0.0
0.851749 0.006625 0.0
0.840064 0.005060 0.0
0.831320 0.003683 0.0
0.825140 0.002497 0.0
0.821170 0.001474 0.0
0.819118 0.000577 0.0
0.818748 -0.000207 0.0
0.819812 -0.000858 0.0
0.822061 -0.001390 0.0
0.825275 -0.001824 0.0
0.829271 -0.002173 0.0
0.833891 -0.002447 0.0
0.838990 -0.002652 0.0
0.844435 -0.002793 0.0
0.850102 -0.002873 0.0
0.855873 -0.002898 0.0
0.861643 -0.002872 0.0
0.867319 -0.002803 0.0
0.872821 -0.002698 0.0
0.878085 -0.002566 0.0
0.883063 -0.002413 0.0
0.887722 -0.002247 0.0
0.892043 -0.002074 0.0
0.896016 -0.001900 0.0
0.899644 -0.001729 0.0
0.902937 -0.001564 0.0
0.905908 -0.001408 0.0
0.908577 -0.001262 0.0
0.910966 -0.001127 0.0
0.913095 -0.001003 0.0
0.914990 -0.000891 0.0
0.916670 -0.000790 0.0
0.918158 -0.000699 0.0
0.919474 -0.000617 0.0
0.920636 -0.000545 0.0
0.921661 -0.000480 0.0
0.922565 -0.000423 0.0
0.923360 -0.000373 0.0
0.924061 -0.000328 0.0
0.924677 -0.000288 0.0
0.925218 -0.000253 0.0
0.925694 -0.000223 0.0
0.926112 -0.000195 0.0
0.926479 -0.000172 0.0
0.926802 -0.000151 0.0
0.927085 -0.000133 0.0
0.927335 -0.000117 0.0
0.927555 -0.000104 0.0
0.927752 -0.000093 0.0
0.927929 -0.000084 0.0
0.928093 -0.000080 0.0
0.928252 -0.000079 0.0
0.928419 -0.000088 0.0
0.928619 -0.000113 0.0
0.928920 -0.000188 0.0
0.929383 -0.000276 0.0
1.001389 -0.003064 0.0
1.006587 -0.009710 0.0
1.016558 -0.016546 0.0
1.031203 -0.023376 0.0
1.050424 -0.029965 0.0
1.073978 -0.035970 0.0
1.101352 -0.040910 0.0
1.131648 -0.044210 0.0
1.163541 -0.045331 0.0
1.195345 -0.043966 0.0
1.225303 -0.040293 0.0
1.251970 -0.034921 0.0
1.274449 -0.028648 0.0
1.292431 -0.022249 0.0
1.306109 -0.016367 0.0
1.316056 -0.011472 0.0
1.323093 -0.007855 0.0
1.328178 -0.005643 0.0
1.332299 -0.004791 0.0
1.336362 -0.005081 0.0
1.341070 -0.006095 0.0
1.346775 -0.007221 0.0
1.353342 -0.007710 0.0
1.360080 -0.006841 0.0
1.365797 -0.004136 0.0
1.369047 0.000499 0.0
1.368485 0.006772 0.0
1.363144 0.014095 0.0
1.352541 0.021805 0.0
1.336656 0.029296 0.0
1.315852 0.036093 0.0
1.290762 0.041866 0.0
1.262182 0.046429 0.0
1.230986 0.049704 0.0
1.198059 0.051687 0.0
1.164263 0.052426 0.0
1.130409 0.051988 0.0
1.097249 0.050447 0.0
1.065467 0.047884 0.0
1.035671 0.044395 0.0
1.008377 0.040121 0.0
0.983985 0.035261 0.0
0.962751 0.030077 0.0
0.944772 0.024855 0.0
0.929982 0.019865 0.0
0.918180 0.015307 0.0
0.909069 0.011291 0.0
0.902305 0.007833 0.0
0.897534 0.004880 0.0
0.894409 0.002348 0.0
0.892631 0.000171 0.0
0.892014 -0.001684 0.0
0.892467 -0.003265 0.0
0.893917 -0.004613 0.0
0.896292 -0.005754 0.0
0.899504 -0.006698 0.0
0.903452 -0.007448 0.0
0.908017 -0.008008 0.0
0.913071 -0.008380 0.0
0.918481 -0.008573 0.0
0.924115 -0.008602 0.0
0.929851 -0.008485 0.0
0.935578 -0.008246 0.0
0.941203 -0.007907 0.0
0.946648 -0.007494 0.0
0.951854 -0.007030 0.0
0.956777 -0.006534 0.0
0.961389 -0.006025 0.0
0.965674 -0.005517 0.0
0.969628 -0.005021 0.0
0.973252 -0.004546 0.0
0.976556 -0.004097 0.0
0.979555 -0.003679 0.0
0.982266 -0.003292 0.0
0.984707 -0.002938 0.0
0.986900 -0.002616 0.0
0.988864 -0.002324 0.0
0.990618 -0.002062 0.0
0.992183 -0.001827 0.0
0.993577 -0.001617 0.0
0.994815 -0.001429 0.0
0.995915 -0.001262 0.0
0.996891 -0.001114 0.0
0.997755 -0.000982 0.0
0.998520 -0.000866 0.0
0.999196 -0.000762 0.0
0.999793 -0.000671 0.0
1.000321 -0.000591 0.0
1.000786 -0.000520 0.0
1.001197 -0.000458 0.0
1.001560 -0.000404 0.0
1.001880 -0.000357 0.0
1.002164 -0.000319 0.0
1.002416 -0.000288 0.0
1.002642 -0.000267 0.0
1.002848 -0.000257 0.0
1.003039 -0.000267 0.0
1.003215 -0.000310 0.0
1.003350 -0.000426 0.0
1.003417 -0.000568 0.0
1.001280 -0.005734 0.0
1.006315 -0.017274 0.0
1.016286 -0.028924 0.0
1.031214 -0.040570 0.0
1.051147 -0.051925 0.0
1.076028 -0.062445 0.0
1.105506 -0.071287 0.0
1.138727 -0.077352 0.0
1.174173 -0.079527 0.0
1.209631 -0.077031 0.0
1.242675 -0.070229 0.0
1.271421 -0.060398 0.0
1.294870 -0.049100 0.0
1.312842 -0.037751 0.0
1.325760 -0.027462 0.0
1.334448 -0.019012 0.0
1.339972 -0.012876 0.0
1.343521 -0.009256 0.0
1.346313 -0.008091 0.0
1.349504 -0.009036 0.0
1.354053 -0.011398 0.0
1.360524 -0.014095 0.0
1.368845 -0.015724 0.0
1.378128 -0.014848 0.0
1.386751 -0.010468 0.0
1.392770 -0.002438 0.0
1.394477 0.008563 0.0
1.390745 0.021376 0.0
1.381101 0.034770 0.0
1.365656 0.047661 0.0
1.344954 0.059235 0.0
1.319801 0.068967 0.0
1.291131 0.076578 0.0
1.259905 0.081978 0.0
1.227049 0.085196 0.0
1.193422 0.086340 0.0
1.159801 0.085549 0.0
1.126871 0.082976 0.0
1.095224 0.078783 0.0
1.065361 0.073155 0.0
1.037690 0.066327 0.0
1.012525 0.058613 0.0
0.990080 0.050404 0.0
0.970458 0.042129 0.0
0.953649 0.034190 0.0
0.939536 0.026898 0.0
0.927918 0.020429 0.0
0.918549 0.014826 0.0
0.911179 0.010027 0.0
0.905587 0.005918 0.0
0.901604 0.002364 0.0
0.899104 -0.000760 0.0
0.897994 -0.003532 0.0
0.898191 -0.005994 0.0
0.899598 -0.008155 0.0
0.902098 -0.010009 0.0
0.905551 -0.011538 0.0
0.909799 -0.012730 0.0
0.914671 -0.013583 0.0
0.919997 -0.014105 0.0
0.925613 -0.014320 0.0
0.931371 -0.014261 0.0
0.937142 -0.013968 0.0
0.942815 -0.013484 0.0
0.948307 -0.012854 0.0
0.953551 -0.012120 0.0
0.958503 -0.011319 0.0
0.963133 -0.010483 0.0
0.967427 -0.009638 0.0
0.971380 -0.008806 0.0
0.974998 -0.008003 0.0
0.978292 -0.007238 0.0
0.981277 -0.006521 0.0
0.983972 -0.005855 0.0
0.986396 -0.005241 0.0
0.988572 -0.004680 0.0
0.990519 -0.004171 0.0
0.992259 -0.003710 0.0
0.993809 -0.003295 0.0
0.995189 -0.002922 0.0
0.996416 -0.002589 0.0
0.997505 -0.002291 0.0
0.998471 -0.002026 0.0
0.999326 -0.001790 0.0
1.000084 -0.001580 0.0
1.000753 -0.001394 0.0
1.001345 -0.001229 0.0
1.001867 -0.001083 0.0
1.002327 -0.000954 0.0
1.002734 -0.000841 0.0
1.003091 -0.000741 0.0
1.003407 -0.000655 0.0
1.003685 -0.000582 0.0
1.003930 -0.000522 0.0
1.004147 -0.000476 0.0
1.004338 -0.000446 0.0
1.004505 -0.000437 0.0
1.004643 -0.000456 0.0
1.004740 -0.000512 0.0
1.004780 -0.000589 0.0
1.001236 -0.008250 0.0
1.006170 -0.024727 0.0
1.016105 -0.041377 0.0
1.031273 -0.058212 0.0
1.052013 -0.074959 0.0
1.078636 -0.090916 0.0
1.111165 -0.104824 0.0
1.148948 -0.114818 0.0
1.190281 -0.118838 0.0
1.231912 -0.114809 0.0
1.269955 -0.103538 0.0
1.301753 -0.087633 0.0
1.326295 -0.069857 0.0
1.343762 -0.052432 0.0
1.355025 -0.036961 0.0
1.361324 -0.024501 0.0
1.364084 -0.015671 0.0
1.364808 -0.010733 0.0
1.365030 -0.009627 0.0
1.366268 -0.011929 0.0
1.369917 -0.016703 0.0
1.376983 -0.022328 0.0
1.387647 -0.026476 0.0
1.400829 -0.026562 0.0
1.414146 -0.020693 0.0
1.424535 -0.008622 0.0
1.429395 0.008181 0.0
1.427271 0.027615 0.0
1.417788 0.047659 0.0
1.401360 0.066644 0.0
1.378908 0.083405 0.0
1.351595 0.097262 0.0
1.320631 0.107917 0.0
1.287164 0.115332 0.0
1.252233 0.119630 0.0
1.216744 0.121022 0.0
1.181474 0.119758 0.0
1.147072 0.116100 0.0
1.114067 0.110311 0.0
1.082885 0.102672 0.0
1.053858 0.093506 0.0
1.027243 0.083213 0.0
1.003221 0.072271 0.0
0.981900 0.061206 0.0
0.963299 0.050522 0.0
0.947356 0.040622 0.0
0.933932 0.031746 0.0
0.922848 0.023961 0.0
0.913917 0.017193 0.0
0.906973 0.011287 0.0
0.901887 0.006065 0.0
0.898552 0.001374 0.0
0.896871 -0.002876 0.0
0.896739 -0.006715 0.0
0.898030 -0.010131 0.0
0.900587 -0.013090 0.0
0.904227 -0.015550 0.0
0.908749 -0.017487 0.0
0.913943 -0.018893 0.0
0.919606 -0.019784 0.0
0.925546 -0.020199 0.0
0.931597 -0.020191 0.0
0.937616 -0.019826 0.0
0.943490 -0.019173 0.0
0.949132 -0.018299 0.0
0.954480 -0.017268 0.0
0.959495 -0.016137 0.0
0.964153 -0.014953 0.0
0.968446 -0.013755 0.0
0.972377 -0.012574 0.0
0.975955 -0.011432 0.0
0.979198 -0.010346 0.0
0.982126 -0.009326 0.0
0.984759 -0.008378 0.0
0.987121 -0.007505 0.0
0.989235 -0.006706 0.0
0.991123 -0.005980 0.0
0.992806 -0.005323 0.0
0.994303 -0.004730 0.0
0.995635 -0.004198 0.0
0.996816 -0.003722 0.0
0.997865 -0.003296 0.0
0.998793 -0.002916 0.0
0.999616 -0.002577 0.0
1.000343 -0.002277 0.0
1.000985 -0.002009 0.0
1.001553 -0.001772 0.0
1.002053 -0.001562 0.0
1.002494 -0.001376 0.0
1.002882 -0.001213 0.0
1.003224 -0.001069 0.0
1.003524 -0.000943 0.0
1.003787 -0.000835 0.0
1.004017 -0.000744 0.0
1.004217 -0.000670 0.0
1.004389 -0.000614 0.0
1.004533 -0.000579 0.0
1.004646 -0.000566 0.0
1.004722 -0.000575 0.0
1.004753 -0.000598 0.0
1.001172 -0.010657 0.0
1.005887 -0.031968 0.0
1.015518 -0.053703 0.0
1.030568 -0.076103 0.0
1.051809 -0.099050 0.0
1.080173 -0.121812 0.0
1.116446 -0.142730 0.0
1.160583 -0.158831 0.0
1.211117 -0.166692 0.0
1.262633 -0.160103 0.0
1.307904 -0.141559 0.0
1.343202 -0.116709 0.0
1.368083 -0.090204 0.0
1.383659 -0.065128 0.0
1.391586 -0.043455 0.0
1.393683 -0.026404 0.0
1.391791 -0.014637 0.0
1.387721 -0.008422 0.0
1.383295 -0.007734 0.0
1.380424 -0.012189 0.0
1.381109 -0.020776 0.0
1.387166 -0.031378 0.0
1.399508 -0.040431 0.0
1.417191 -0.043473 0.0
1.436996 -0.036904 0.0
1.454144 -0.019949 0.0
1.464213 0.004581 0.0
1.464956 0.032594 0.0
1.456205 0.060914 0.0
1.438888 0.087134 0.0
1.414496 0.109759 0.0
1.384664 0.128054 0.0
1.350937 0.141817 0.0
1.314674 0.151161 0.0
1.277033 0.156372 0.0
1.238984 0.157817 0.0
1.201328 0.155890 0.0
1.164714 0.150985 0.0
1.129657 0.143488 0.0
1.096556 0.133779 0.0
1.065712 0.122270 0.0
1.037347 0.109429 0.0
1.011619 0.095804 0.0
0.988618 0.081995 0.0
0.968366 0.068586 0.0
0.950811 0.056057 0.0
0.935846 0.044701 0.0
0.923332 0.034605 0.0
0.913129 0.025684 0.0
0.905121 0.017749 0.0
0.899213 0.010596 0.0
0.895324 0.004066 0.0
0.893362 -0.001924 0.0
0.893203 -0.007377 0.0
0.894688 -0.012245 0.0
0.897614 -0.016459 0.0
0.901746 -0.019954 0.0
0.906830 -0.022690 0.0
0.912610 -0.024664 0.0
0.918841 -0.025906 0.0
0.925302 -0.026478 0.0
0.931806 -0.026466 0.0
0.938202 -0.025966 0.0
0.944371 -0.025077 0.0
0.950232 -0.023898 0.0
0.955729 -0.022515 0.0
0.960832 -0.021007 0.0
0.965527 -0.019436 0.0
0.969817 -0.017854 0.0
0.973714 -0.016301 0.0
0.977237 -0.014806 0.0
0.980409 -0.013387 0.0
0.983257 -0.012059 0.0
0.985805 -0.010827 0.0
0.988082 -0.009694 0.0
0.990111 -0.008660 0.0
0.991917 -0.007720 0.0
0.993523 -0.006871 0.0
0.994949 -0.006106 0.0
0.996214 -0.005419 0.0
0.997335 -0.004804 0.0
0.998328 -0.004254 0.0
0.999206 -0.003764 0.0
0.999983 -0.003328 0.0
1.000669 -0.002940 0.0
1.001275 -0.002595 0.0
1.001810 -0.002289 0.0
1.002281 -0.002017 0.0
1.002696 -0.001777 0.0
1.003060 -0.001565 0.0
1.003380 -0.001378 0.0
1.003659 -0.001214 0.0
1.003903 -0.001072 0.0
1.004115 -0.000949 0.0
1.004296 -0.000846 0.0
1.004449 -0.000763 0.0
1.004573 -0.000699 0.0
1.004667 -0.000653 0.0
1.004728 -0.000624 0.0
1.004752 -0.000604 0.0
1.001040 -0.012869 0.0
1.005252 -0.038683 0.0
1.013998 -0.065366 0.0
1.028071 -0.093562 0.0
1.048799 -0.123559 0.0
1.078045 -0.154913 0.0
1.117988 -0.185845 0.0
1.170098 -0.211962 0.0
1.234978 -0.228976 0.0
1.301971 -0.216328 0.0
1.355797 -0.184430 0.0
1.392669 -0.146007 0.0
1.414819 -0.107938 0.0
1.425379 -0.073531 0.0
1.427085 -0.044685 0.0
1.422326 -0.022511 0.0
1.413223 -0.007534 0.0
1.401666 0.000102 0.0
1.389498 0.000335 0.0
1.378788 -0.006677 0.0
1.372120 -0.020305 0.0
1.372555 -0.038341 0.0
1.382587 -0.055842 0.0
1.402357 -0.065514 0.0
1.428514 -0.060825 0.0
1.454621 -0.039285 0.0
1.473204 -0.004736 0.0
1.479762 0.034610 0.0
1.474087 0.073324 0.0
1.457984 0.108144 0.0
1.433735 0.137390 0.0
1.403499 0.160490 0.0
1.369098 0.177509 0.0
1.332003 0.188826 0.0
1.293404 0.194947 0.0
1.254277 0.196419 0.0
1.215428 0.193792 0.0
1.177526 0.187599 0.0
1.141109 0.178347 0.0
1.106602 0.166528 0.0
1.074327 0.152641 0.0
1.044519 0.137231 0.0
1.017338 0.120913 0.0
0.992868 0.104356 0.0
0.971128 0.088217 0.0
0.952075 0.073034 0.0
0.935628 0.059135 0.0
0.921700 0.046613 0.0
0.910219 0.035360 0.0
0.901138 0.025162 0.0
0.894428 0.015801 0.0
0.890049 0.007130 0.0
0.887922 -0.000898 0.0
0.887909 -0.008233 0.0
0.889808 -0.014773 0.0
0.893358 -0.020405 0.0
0.898254 -0.025035 0.0
0.904174 -0.028613 0.0
0.910797 -0.031144 0.0
0.917826 -0.032685 0.0
0.925003 -0.033338 0.0
0.932118 -0.033226 0.0
0.939009 -0.032491 0.0
0.945560 -0.031272 0.0
0.951695 -0.029699 0.0
0.957372 -0.027888 0.0
0.962575 -0.025939 0.0
0.967305 -0.023930 0.0
0.971581 -0.021926 0.0
0.975425 -0.019972 0.0
0.978869 -0.018102 0.0
0.981945 -0.016339 0.0
0.984686 -0.014695 0.0
0.987124 -0.013177 0.0
0.989289 -0.011786 0.0
0.991209 -0.010519 0.0
0.992912 -0.009370 0.0
0.994420 -0.008334 0.0
0.995755 -0.007403 0.0
0.996936 -0.006568 0.0
0.997981 -0.005821 0.0
0.998904 -0.005154 0.0
0.999720 -0.004559 0.0
1.000441 -0.004030 0.0
1.001076 -0.003560 0.0
1.001637 -0.003141 0.0
1.002130 -0.002770 0.0
1.002565 -0.002441 0.0
1.002947 -0.002149 0.0
1.003282 -0.001891 0.0
1.003575 -0.001664 0.0
1.003830 -0.001463 0.0
1.004052 -0.001288 0.0
1.004242 -0.001135 0.0
1.004403 -0.001004 0.0
1.004537 -0.000892 0.0
1.004643 -0.000800 0.0
1.004721 -0.000724 0.0
1.004770 -0.000662 0.0
1.004786 -0.000606 0.0
1.000799 -0.014709 0.0
1.004057 -0.044313 0.0
1.010966 -0.075390 0.0
1.022547 -0.109192 0.0
1.040674 -0.146784 0.0
1.068374 -0.188634 0.0
1.110059 -0.233753 0.0
1.170480 -0.276585 0.0
1.257871 -0.316624 0.0
1.347124 -0.284926 0.0
1.404824 -0.227359 0.0
1.434674 -0.169801 0.0
1.446718 -0.118338 0.0
1.447014 -0.073987 0.0
1.438840 -0.037761 0.0
1.424501 -0.010336 0.0
1.405583 0.008312 0.0
1.383588 0.017808 0.0
1.360354 0.018031 0.0
1.337662 0.009030 0.0
1.317459 -0.009142 0.0
1.303652 -0.036132 0.0
1.301720 -0.066152 0.0
1.314679 -0.087933 0.0
1.341053 -0.090937 0.0
1.374966 -0.069194 0.0
1.406361 -0.024804 0.0
1.425242 0.029241 0.0
1.428920 0.080690 0.0
1.420419 0.125382 0.0
1.402941 0.161881 0.0
1.379010 0.190167 0.0
1.350441 0.210802 0.0
1.318564 0.224505 0.0
1.284432 0.231999 0.0
1.248946 0.233981 0.0
1.212907 0.231117 0.0
1.177033 0.224051 0.0
1.141950 0.213396 0.0
1.108187 0.199750 0.0
1.076171 0.183710 0.0
1.046227 0.165913 0.0
1.018581 0.147058 0.0
0.993366 0.127896 0.0
0.970636 0.109148 0.0
0.950394 0.091397 0.0
0.932631 0.074982 0.0
0.917353 0.059972 0.0
0.904607 0.046228 0.0
0.894467 0.033515 0.0
0.887001 0.021624 0.0
0.882234 0.010452 0.0
0.880113 0.000027 0.0
0.880483 -0.009516 0.0
0.883094 -0.017999 0.0
0.887608 -0.025243 0.0
0.893629 -0.031115 0.0
0.900736 -0.035560 0.0
0.908523 -0.038606 0.0
0.916626 -0.040355 0.0
0.924742 -0.040962 0.0
0.932639 -0.040613 0.0
0.940147 -0.039504 0.0
0.947158 -0.037822 0.0
0.953613 -0.035739 0.0
0.959488 -0.033401 0.0
0.964789 -0.030930 0.0
0.969539 -0.028421 0.0
0.973775 -0.025946 0.0
0.977537 -0.023558 0.0
0.980870 -0.021293 0.0
0.983816 -0.019171 0.0
0.986419 -0.017206 0.0
0.988715 -0.015400 0.0
0.990740 -0.013753 0.0
0.992526 -0.012258 0.0
0.994101 -0.010908 0.0
0.995490 -0.009694 0.0
0.996715 -0.008604 0.0
0.997796 -0.007629 0.0
0.998749 -0.006757 0.0
0.999589 -0.005981 0.0
1.000330 -0.005289 0.0
1.000983 -0.004674 0.0
1.001558 -0.004127 0.0
1.002065 -0.003641 0.0
1.002510 -0.003210 0.0
1.002902 -0.002827 0.0
1.003245 -0.002488 0.0
1.003546 -0.002188 0.0
1.003808 -0.001922 0.0
1.004035 -0.001688 0.0
1.004231 -0.001481 0.0
1.004399 -0.001299 0.0
1.004539 -0.001141 0.0
1.004653 -0.001003 0.0
1.004742 -0.000884 0.0
1.004805 -0.000781 0.0
1.004842 -0.000691 0.0
1.004852 -0.000604 0.0
1.000421 -0.015929 0.0
1.002146 -0.048076 0.0
1.005950 -0.082340 0.0
1.012853 -0.120726 0.0
1.024958 -0.165483 0.0
1.046247 -0.218925 0.0
1.083887 -0.282787 0.0
1.148711 -0.352795 0.0
1.268851 -0.447945 0.0
1.381402 -0.355409 0.0
1.420239 -0.253412 0.0
1.422664 -0.176022 0.0
1.413103 -0.114599 0.0
1.397936 -0.062856 0.0
1.378019 -0.020802 0.0
1.352535 0.012528 0.0
1.321307 0.035595 0.0
1.286094 0.047732 0.0
1.248478 0.048957 0.0
1.210125 0.039150 0.0
1.172828 0.018238 0.0
1.137470 -0.014347 0.0
1.109710 -0.058245 0.0
1.099507 -0.098595 0.0
1.112173 -0.119315 0.0
1.146265 -0.108821 0.0
1.193189 -0.063496 0.0
1.236690 0.005550 0.0
1.264751 0.072641 0.0
1.278275 0.128407 0.0
1.281698 0.172912 0.0
1.277479 0.207286 0.0
1.266994 0.232737 0.0
1.251190 0.250251 0.0
1.230929 0.260645 0.0
1.207100 0.264649 0.0
1.180620 0.262968 0.0
1.152392 0.256302 0.0
1.123266 0.245353 0.0
1.094003 0.230819 0.0
1.065249 0.213411 0.0
1.037523 0.193882 0.0
1.011209 0.173048 0.0
0.986574 0.151757 0.0
0.963790 0.130801 0.0
0.942991 0.110785 0.0
0.924321 0.092027 0.0
0.907974 0.074551 0.0
0.894194 0.058176 0.0
0.883231 0.042670 0.0
0.875293 0.027873 0.0
0.870485 0.013778 0.0
0.868781 0.000527 0.0
0.870016 -0.011622 0.0
0.873882 -0.022370 0.0
0.879933 -0.031438 0.0
0.887638 -0.038645 0.0
0.896441 -0.043940 0.0
0.905824 -0.047396 0.0
0.915347 -0.049190 0.0
0.924663 -0.049560 0.0
0.933524 -0.048772 0.0
0.941767 -0.047096 0.0
0.949305 -0.044778 0.0
0.956104 -0.042036 0.0
0.962174 -0.039049 0.0
0.967551 -0.035960 0.0
0.972287 -0.032877 0.0
0.976442 -0.029880 0.0
0.980078 -0.027023 0.0
0.983256 -0.024339 0.0
0.986032 -0.021848 0.0
0.988457 -0.019557 0.0
0.990577 -0.017465 0.0
0.992431 -0.015567 0.0
0.994054 -0.013853 0.0
0.995477 -0.012311 0.0
0.996725 -0.010928 0.0
0.997820 -0.009690 0.0
0.998783 -0.008585 0.0
0.999629 -0.007600 0.0
1.000373 -0.006723 0.0
1.001027 -0.005942 0.0
1.001603 -0.005249 0.0
1.002109 -0.004633 0.0
1.002554 -0.004086 0.0
1.002944 -0.003601 0.0
1.003287 -0.003170 0.0
1.003586 -0.002789 0.0
1.003848 -0.002450 0.0
1.004075 -0.002150 0.0
1.004272 -0.001884 0.0
1.004440 -0.001649 0.0
1.004582 -0.001441 0.0
1.004700 -0.001257 0.0
1.004794 -0.001095 0.0
1.004866 -0.000952 0.0
1.004914 -0.000824 0.0
1.004940 -0.000710 0.0
1.004943 -0.000598 0.0
0.999906 -0.016255 0.0
0.999521 -0.049091 0.0
0.998894 -0.084501 0.0
0.998613 -0.125187 0.0
1.000208 -0.174724 0.0
1.007318 -0.238082 0.0
1.028429 -0.322381 0.0
1.082074 -0.431669 0.0
1.233640 -0.640777 0.0
1.343435 -0.384923 0.0
1.308385 -0.227685 0.0
1.253317 -0.149107 0.0
1.213642 -0.092279 0.0
1.184959 -0.041325 0.0
1.155423 0.007120 0.0
1.118198 0.047316 0.0
1.074596 0.075638 0.0
1.025375 0.092123 0.0
0.969708 0.097850 0.0
0.906630 0.091688 0.0
0.838941 0.070685 0.0
0.774919 0.032587 0.0
0.722748 -0.025247 0.0
0.694952 -0.093594 0.0
0.703379 -0.145409 0.0
0.745950 -0.159389 0.0
0.813504 -0.127407 0.0
0.894867 -0.055402 0.0
0.970072 0.030328 0.0
1.026166 0.101101 0.0
1.066998 0.155963 0.0
1.096508 0.198943 0.0
1.116037 0.232036 0.0
1.126466 0.256326 0.0
1.128764 0.272534 0.0
1.124055 0.281299 0.0
1.113554 0.283299 0.0
1.098485 0.279267 0.0
1.080015 0.269984 0.0
1.059204 0.256263 0.0
1.036973 0.238952 0.0
1.014085 0.218955 0.0
0.991141 0.197232 0.0
0.968604 0.174746 0.0
0.946853 0.152348 0.0
0.926257 0.130635 0.0
0.907237 0.109867 0.0
0.890290 0.090005 0.0
0.875946 0.070846 0.0
0.864703 0.052206 0.0
0.856936 0.034043 0.0
0.852847 0.016504 0.0
0.852449 -0.000098 0.0
0.855547 -0.015330 0.0
0.861703 -0.028684 0.0
0.870267 -0.039740 0.0
0.880493 -0.048274 0.0
0.891655 -0.054276 0.0
0.903127 -0.057915 0.0
0.914412 -0.059479 0.0
0.925149 -0.059324 0.0
0.935103 -0.057822 0.0
0.944142 -0.055329 0.0
0.952217 -0.052158 0.0
0.959339 -0.048578 0.0
0.965561 -0.044799 0.0
0.970957 -0.040983 0.0
0.975617 -0.037249 0.0
0.979628 -0.033675 0.0
0.983078 -0.030314 0.0
0.986044 -0.027193 0.0
0.988598 -0.024324 0.0
0.990801 -0.021708 0.0
0.992704 -0.019337 0.0
0.994352 -0.017198 0.0
0.995783 -0.015277 0.0
0.997027 -0.013555 0.0
0.998111 -0.012017 0.0
0.999058 -0.010644 0.0
0.999886 -0.009422 0.0
1.000611 -0.008334 0.0
1.001246 -0.007368 0.0
1.001803 -0.006509 0.0
1.002292 -0.005747 0.0
1.002721 -0.005070 0.0
1.003097 -0.004470 0.0
1.003426 -0.003937 0.0
1.003714 -0.003465 0.0
1.003966 -0.003045 0.0
1.004184 -0.002673 0.0
1.004374 -0.002343 0.0
1.004536 -0.002050 0.0
1.004675 -0.001789 0.0
1.004790 -0.001558 0.0
1.004884 -0.001352 0.0
1.004958 -0.001168 0.0
1.005012 -0.001004 0.0
1.005047 -0.000855 0.0
1.005062 -0.000720 0.0
1.005057 -0.000586 0.0
0.999309 -0.015470 0.0
0.996460 -0.046643 0.0
0.990522 -0.080383 0.0
0.981160 -0.119662 0.0
0.968141 -0.168825 0.0
0.952011 -0.234960 0.0
0.936421 -0.331024 0.0
0.936774 -0.477024 0.0
1.040571 -0.850785 0.0
1.051569 -0.295708 0.0
0.878495 -0.108775 0.0
0.751310 -0.085763 0.0
0.696055 -0.060692 0.0
0.665817 -0.013990 0.0
0.629687 0.045450 0.0
0.578496 0.097402 0.0
0.512482 0.135168 0.0
0.436859 0.157437 0.0
0.357502 0.167559 0.0
0.280303 0.162256 0.0
0.215902 0.132206 0.0
0.178166 0.072824 0.0
0.176988 -0.012135 0.0
0.208457 -0.110380 0.0
0.261732 -0.190323 0.0
0.331793 -0.227106 0.0
0.416894 -0.212345 0.0
0.517031 -0.151963 0.0
0.628957 -0.060242 0.0
0.733399 0.031135 0.0
0.815660 0.102836 0.0
0.879883 0.158336 0.0
0.930317 0.202681 0.0
0.968307 0.237262 0.0
0.994969 0.262637 0.0
1.011573 0.279302 0.0
1.019495 0.287875 0.0
1.020135 0.289120 0.0
1.014834 0.283902 0.0
1.004830 0.273160 0.0
0.991218 0.257897 0.0
0.974936 0.239180 0.0
0.956770 0.218117 0.0
0.937398 0.195768 0.0
0.917478 0.172997 0.0
0.897724 0.150336 0.0
0.878959 0.127950 0.0
0.862087 0.105741 0.0
0.848004 0.083535 0.0
0.837494 0.061271 0.0
0.831133 0.039105 0.0
0.829247 0.017416 0.0
0.831863 -0.003227 0.0
0.838595 -0.022029 0.0
0.848619 -0.038164 0.0
0.860901 -0.051105 0.0
0.874443 -0.060677 0.0
0.888407 -0.067000 0.0
0.902147 -0.070403 0.0
0.915201 -0.071331 0.0
0.927269 -0.070277 0.0
0.938176 -0.067731 0.0
0.947854 -0.064137 0.0
0.956310 -0.059881 0.0
0.963607 -0.055275 0.0
0.969845 -0.050560 0.0
0.975139 -0.045913 0.0
0.979613 -0.041452 0.0
0.983384 -0.037255 0.0
0.986564 -0.033363 0.0
0.989247 -0.029793 0.0
0.991517 -0.026547 0.0
0.993444 -0.023614 0.0
0.995086 -0.020976 0.0
0.996491 -0.018612 0.0
0.997697 -0.016500 0.0
0.998737 -0.014616 0.0
0.999636 -0.012939 0.0
1.000415 -0.011448 0.0
1.001093 -0.010123 0.0
1.001683 -0.008948 0.0
1.002198 -0.007904 0.0
1.002648 -0.006979 0.0
1.003042 -0.006159 0.0
1.003386 -0.005431 0.0
1.003686 -0.004786 0.0
1.003949 -0.004213 0.0
1.004178 -0.003706 0.0
1.004378 -0.003255 0.0
1.004550 -0.002855 0.0
1.004699 -0.002499 0.0
1.004825 -0.002183 0.0
1.004932 -0.001901 0.0
1.005020 -0.001650 0.0
1.005089 -0.001425 0.0
1.005142 -0.001222 0.0
1.005179 -0.001040 0.0
1.005198 -0.000874 0.0
1.005202 -0.000721 0.0
1.005189 -0.000568 0.0
0.998739 -0.013518 0.0
0.993529 -0.040536 0.0
0.982451 -0.069474 0.0
0.964056 -0.102815 0.0
0.935666 -0.144263 0.0
0.892359 -0.200084 0.0
0.824389 -0.282340 0.0
0.713746 -0.415420 0.0
0.322446 -0.729965 0.0
-0.482605 -0.244660 0.0
-0.482605 -0.105438 0.0
-0.032816 -0.023913 0.0
-0.055433 -0.055294 0.0
0.000836 -0.045419 0.0
0.081201 0.032644 0.0
0.116189 0.126411 0.0
0.098076 0.190286 0.0
0.048998 0.227020 0.0
-0.013674 0.240006 0.0
-0.072076 0.225410 0.0
-0.112822 0.174199 0.0
-0.128996 0.084741 0.0
-0.118371 -0.033499 0.0
-0.084422 -0.154435 0.0
-0.032229 -0.251736 0.0
0.036148 -0.304131 0.0
0.119090 -0.303362 0.0
0.216662 -0.258656 0.0
0.330133 -0.178947 0.0
0.455225 -0.079694 0.0
0.573228 0.013402 0.0
0.668528 0.088247 0.0
0.743804 0.147060 0.0
0.804199 0.194498 0.0
0.851459 0.231479 0.0
0.886888 0.258428 0.0
0.911795 0.275919 0.0
0.927496 0.284736 0.0
0.935265 0.285819 0.0
0.936294 0.280218 0.0
0.931678 0.269068 0.0
0.922399 0.253569 0.0
0.909370 0.234923 0.0
0.893502 0.214202 0.0
0.875800 0.192187 0.0
0.857426 0.169273 0.0
0.839702 0.145503 0.0
0.824020 0.120744 0.0
0.811719 0.094916 0.0
0.803942 0.068178 0.0
0.801498 0.041002 0.0
0.804745 0.014159 0.0
0.813337 -0.011178 0.0
0.826085 -0.033558 0.0
0.841427 -0.052001 0.0
0.857996 -0.066120 0.0
0.874767 -0.075976 0.0
0.891033 -0.081930 0.0
0.906332 -0.084511 0.0
0.920381 -0.084326 0.0
0.933027 -0.081995 0.0
0.944211 -0.078105 0.0
0.953949 -0.073178 0.0
0.962308 -0.067655 0.0
0.969395 -0.061886 0.0
0.975343 -0.056134 0.0
0.980294 -0.050584 0.0
0.984393 -0.045353 0.0
0.987776 -0.040508 0.0
0.990566 -0.036079 0.0
0.992872 -0.032066 0.0
0.994783 -0.028456 0.0
0.996374 -0.025224 0.0
0.997707 -0.022340 0.0
0.998829 -0.019774 0.0
0.999779 -0.017494 0.0
1.000587 -0.015470 0.0
1.001279 -0.013676 0.0
1.001874 -0.012085 0.0
1.002387 -0.010676 0.0
1.002830 -0.009429 0.0
1.003215 -0.008323 0.0
1.003549 -0.007345 0.0
1.003840 -0.006477 0.0
1.004094 -0.005709 0.0
1.004314 -0.005029 0.0
1.004506 -0.004425 0.0
1.004672 -0.003890 0.0
1.004816 -0.003414 0.0
1.004940 -0.002992 0.0
1.005046 -0.002616 0.0
1.005135 -0.002281 0.0
1.005208 -0.001982 0.0
1.005267 -0.001715 0.0
1.005312 -0.001474 0.0
1.005343 -0.001257 0.0
1.005361 -0.001060 0.0
1.005366 -0.000879 0.0
1.005359 -0.000711 0.0
1.005338 -0.000543 0.0
0.998319 -0.010576 0.0
0.991394 -0.031343 0.0
0.976643 -0.052839 0.0
0.951962 -0.076374 0.0
0.913287 -0.103640 0.0
0.852746 -0.136860 0.0
0.753754 -0.178601 0.0
0.576812 -0.231574 0.0
0.230911 -0.276249 0.0
0.000000 -0.145020 0.0
-0.000000 -0.217115 0.0
0.000000 -0.084189 0.0
-0.031144 -0.035210 0.0
-0.077992 -0.075785 0.0
-0.092478 -0.002869 0.0
-0.095830 0.130287 0.0
-0.116459 0.225152 0.0
-0.155406 0.280178 0.0
-0.201734 0.295849 0.0
-0.242566 0.268801 0.0
-0.266167 0.195156 0.0
-0.265093 0.078883 0.0
-0.239769 -0.063589 0.0
-0.199649 -0.198415 0.0
-0.153838 -0.305760 0.0
-0.101869 -0.370453 0.0
-0.036496 -0.385356 0.0
0.044814 -0.355545 0.0
0.141076 -0.291791 0.0
0.251508 -0.202373 0.0
0.370607 -0.101021 0.0
0.484242 -0.006266 0.0
0.578657 0.071881 0.0
0.654187 0.133752 0.0
0.715742 0.183410 0.0
0.765021 0.221790 0.0
0.803139 0.249532 0.0
0.831110 0.267451 0.0
0.849909 0.276536 0.0
0.860485 0.277895 0.0
0.863770 0.272723 0.0
0.860713 0.262250 0.0
0.852343 0.247642 0.0
0.839859 0.229835 0.0
0.824717 0.209398 0.0
0.808655 0.186497 0.0
0.793635 0.161023 0.0
0.781685 0.132855 0.0
0.774653 0.102138 0.0
0.773907 0.069479 0.0
0.780069 0.035983 0.0
0.792708 0.003293 0.0
0.810006 -0.026203 0.0
0.829591 -0.050867 0.0
0.849688 -0.070131 0.0
0.869196 -0.084066 0.0
0.887497 -0.093101 0.0
0.904276 -0.097850 0.0
0.919402 -0.099016 0.0
0.932850 -0.097318 0.0
0.944656 -0.093455 0.0
0.954897 -0.088070 0.0
0.963672 -0.081726 0.0
0.971102 -0.074895 0.0
0.977318 -0.067949 0.0
0.982462 -0.061163 0.0
0.986678 -0.054723 0.0
0.990107 -0.048742 0.0
0.992881 -0.043276 0.0
0.995119 -0.038339 0.0
0.996925 -0.033917 0.0
0.998385 -0.029977 0.0
0.999571 -0.026481 0.0
1.000541 -0.023386 0.0
1.001340 -0.020649 0.0
1.002002 -0.018231 0.0
1.002555 -0.016095 0.0
1.003020 -0.014208 0.0
1.003414 -0.012541 0.0
1.003750 -0.011069 0.0
1.004036 -0.009767 0.0
1.004282 -0.008616 0.0
1.004494 -0.007598 0.0
1.004677 -0.006698 0.0
1.004834 -0.005900 0.0
1.004971 -0.005194 0.0
1.005088 -0.004569 0.0
1.005189 -0.004014 0.0
1.005275 -0.003521 0.0
1.005348 -0.003083 0.0
1.005409 -0.002692 0.0
1.005459 -0.002344 0.0
1.005499 -0.002032 0.0
1.005528 -0.001753 0.0
1.005547 -0.001501 0.0
1.005557 -0.001272 0.0
1.005557 -0.001063 0.0
1.005547 -0.000871 0.0
1.005528 -0.000692 0.0
1.005498 -0.000512 0.0
0.998133 -0.007028 0.0
0.990483 -0.020314 0.0
0.974328 -0.032961 0.0
0.947682 -0.044924 0.0
0.906996 -0.055729 0.0
0.846435 -0.063670 0.0
0.757094 -0.063457 0.0
0.627844 -0.040526 0.0
0.464688 0.047201 0.0
0.188795 0.164428 0.0
0.000000 -0.108816 0.0
-0.000000 -0.174457 0.0
0.000000 -0.082467 0.0
-0.029027 -0.033517 0.0
-0.079792 0.017651 0.0
-0.121561 0.154888 0.0
-0.159382 0.259002 0.0
-0.194394 0.320286 0.0
-0.226502 0.334178 0.0
-0.249397 0.294198 0.0
-0.253446 0.197409 0.0
-0.230843 0.052953 0.0
-0.188950 -0.104876 0.0
-0.143888 -0.242311 0.0
-0.103819 -0.347743 0.0
-0.069184 -0.415073 0.0
-0.033985 -0.441309 0.0
0.011378 -0.426265 0.0
0.072872 -0.378828 0.0
0.151289 -0.304184 0.0
0.244243 -0.211263 0.0
0.345480 -0.110894 0.0
0.444222 -0.016649 0.0
0.529151 0.061823 0.0
0.598641 0.124294 0.0
0.656161 0.174106 0.0
0.702854 0.212405 0.0
0.739339 0.240122 0.0
0.766146 0.258259 0.0
0.783858 0.267885 0.0
0.793196 0.270110 0.0
0.795097 0.266019 0.0
0.790803 0.256536 0.0
0.781965 0.242261 0.0
0.770701 0.223379 0.0
0.759540 0.199739 0.0
0.751208 0.171132 0.0
0.748222 0.137681 0.0
0.752395 0.100172 0.0
0.764410 0.060176 0.0
0.783561 0.019973 0.0
0.807202 -0.016979 0.0
0.832003 -0.048030 0.0
0.855864 -0.072486 0.0
0.877802 -0.090547 0.0
0.897432 -0.102788 0.0
0.914692 -0.109940 0.0
0.929691 -0.112789 0.0
0.942613 -0.112125 0.0