# vtk DataFile Version 3.0
Vector Field
ASCII
DATASET RECTILINEAR_GRID
DIMENSIONS 100 26 1
X_COORDINATES 100 double
0.050000 0.150000 0.250000 0.350000 0.450000 0.550000 0.650000 0.750000 0.850000 0.950000 1.050000 1.150000 1.250000 1.350000 1.450000 1.550000 1.650000 1.750000 1.850000 1.950000 2.050000 2.150000 2.250000 2.350000 2.450000 2.550000 2.650000 2.750000 2.850000 2.950000 3.050000 3.150000 3.250000 3.350000 3.450000 3.550000 3.650000 3.750000 3.850000 3.950000 4.050000 4.150000 4.250000 4.350000 4.450000 4.550000 4.650000 4.750000 4.850000 4.950000 5.050000 5.150000 5.250000 5.350000 5.450000 5.550000 5.650000 5.750000 5.850000 5.950000 6.050000 6.150000 6.250000 6.350000 6.450000 6.550000 6.650000 6.750000 6.850000 6.950000 7.050000 7.150000 7.250000 7.350000 7.450000 7.550000 7.650000 7.750000 7.850000 7.950000 8.050000 8.150000 8.250000 8.350000 8.450000 8.550000 8.650000 8.750000 8.850000 8.950000 9.050000 9.150000 9.250000 9.350000 9.450000 9.550000 9.650000 9.750000 9.850000 9.950000 
Y_COORDINATES 26 double
0.050000 0.150000 0.250000 0.350000 0.450000 0.550000 0.650000 0.750000 0.850000 0.950000 1.050000 1.150000 1.250000 1.350000 1.450000 1.550000 1.650000 1.750000 1.850000 1.950000 2.050000 2.150000 2.250000 2.350000 2.450000 2.550000 
Z_COORDINATES 1 double
0.0
POINT_DATA 2600
VECTORS Vektorfeld double
1.000901 -0.000901 0.0
1.004991 -0.003188 0.0
1.013830 -0.005650 0.0
1.027641 -0.008161 0.0
1.046415 -0.010614 0.0
1.069903 -0.012874 0.0
1.097541 -0.014763 0.0
1.128374 -0.016071 0.0
1.161039 -0.016594 0.0
1.193831 -0.016199 0.0
1.224919 -0.014889 0.0
1.252606 -0.012798 0.0
1.275537 -0.010132 0.0
1.292778 -0.007109 0.0
1.303817 -0.003931 0.0
1.308529 -0.000781 0.0
1.307128 0.002182 0.0
1.300117 0.004829 0.0
1.288241 0.007047 0.0
1.272457 0.008738 0.0
1.253895 0.009824 0.0
1.233817 0.010253 0.0
1.213566 0.009998 0.0
1.194510 0.009058 0.0
1.177987 0.007465 0.0
1.165244 0.005278 0.0
1.157384 0.002583 0.0
1.155287 -0.000487 0.0
1.159412 -0.003639 0.0
1.169577 -0.006526 0.0
1.184862 -0.008760 0.0
1.203583 -0.009961 0.0
1.223400 -0.009856 0.0
1.241633 -0.008377 0.0
1.255729 -0.005719 0.0
1.263743 -0.002295 0.0
1.264564 0.001475 0.0
1.257797 0.005292 0.0
1.243618 0.008888 0.0
1.222662 0.012068 0.0
1.195883 0.014712 0.0
1.164408 0.016763 0.0
1.129439 0.018206 0.0
1.092183 0.019050 0.0
1.053816 0.019317 0.0
1.015470 0.019028 0.0
0.978245 0.018197 0.0
0.943219 0.016829 0.0
0.911478 0.014912 0.0
0.884142 0.012423 0.0
0.862376 0.009343 0.0
0.847339 0.005694 0.0
0.840023 0.001622 0.0
0.840858 -0.002457 0.0
0.849574 -0.006259 0.0
0.865589 -0.009756 0.0
0.888299 -0.012954 0.0
0.917100 -0.015847 0.0
0.951331 -0.018384 0.0
0.990160 -0.020445 0.0
1.032419 -0.021813 0.0
1.076409 -0.022178 0.0
1.119776 -0.021189 0.0
1.159527 -0.018562 0.0
1.192328 -0.014239 0.0
1.215124 -0.008557 0.0
1.225967 -0.002286 0.0
1.224396 0.003857 0.0
1.210955 0.009585 0.0
1.186715 0.014656 0.0
1.153219 0.018840 0.0
1.112426 0.021954 0.0
1.066605 0.023867 0.0
1.018244 0.024494 0.0
0.969953 0.023798 0.0
0.924356 0.021799 0.0
0.883936 0.018622 0.0
0.850778 0.014537 0.0
0.826275 0.009966 0.0
0.810886 0.005423 0.0
0.804041 0.001423 0.0
0.804184 -0.001566 0.0
0.809245 -0.003495 0.0
0.817429 -0.004690 0.0
0.827578 -0.005459 0.0
0.839099 -0.006061 0.0
0.851849 -0.006688 0.0
0.866004 -0.007467 0.0
0.881924 -0.008453 0.0
0.900006 -0.009629 0.0
0.920545 -0.010909 0.0
0.943603 -0.012149 0.0
0.968917 -0.013165 0.0
0.995846 -0.013764 0.0
1.023369 -0.013759 0.0
1.050138 -0.013010 0.0
1.074608 -0.011460 0.0
1.095294 -0.009226 0.0
1.111131 -0.006611 0.0
1.123731 -0.005989 0.0
1.001452 -0.003255 0.0
1.006954 -0.010426 0.0
1.017624 -0.017922 0.0
1.033451 -0.025527 0.0
1.054408 -0.032979 0.0
1.080301 -0.039890 0.0
1.110632 -0.045717 0.0
1.144475 -0.049794 0.0
1.180400 -0.051460 0.0
1.216523 -0.050248 0.0
1.250772 -0.046176 0.0
1.281282 -0.039708 0.0
1.306648 -0.031519 0.0
1.325977 -0.022292 0.0
1.338826 -0.012635 0.0
1.345111 -0.003073 0.0
1.345049 0.005936 0.0
1.339145 0.013989 0.0
1.328176 0.020733 0.0
1.313139 0.025873 0.0
1.295215 0.029176 0.0
1.275714 0.030480 0.0
1.256029 0.029706 0.0
1.237582 0.026853 0.0
1.221761 0.022014 0.0
1.209857 0.015375 0.0
1.202967 0.007236 0.0
1.201878 -0.001953 0.0
1.207061 -0.011480 0.0
1.218589 -0.020377 0.0
1.235846 -0.027450 0.0
1.257317 -0.031462 0.0
1.280620 -0.031475 0.0
1.302839 -0.027209 0.0
1.321060 -0.019204 0.0
1.332895 -0.008660 0.0
1.336846 0.003068 0.0
1.332436 0.014875 0.0
1.320014 0.025906 0.0
1.300434 0.035585 0.0
1.274830 0.043578 0.0
1.244464 0.049737 0.0
1.210625 0.054039 0.0
1.174568 0.056531 0.0
1.137488 0.057284 0.0
1.100525 0.056370 0.0
1.064764 0.053842 0.0
1.031245 0.049730 0.0
1.000949 0.044048 0.0
0.974745 0.036827 0.0
0.953288 0.028163 0.0
0.936925 0.018274 0.0
0.925721 0.007561 0.0
0.919842 -0.003352 0.0
0.919733 -0.013972 0.0
0.925794 -0.024119 0.0
0.938166 -0.033672 0.0
0.956768 -0.042530 0.0
0.981392 -0.050556 0.0
1.011738 -0.057449 0.0
1.047297 -0.062627 0.0
1.087151 -0.065208 0.0
1.129765 -0.064140 0.0
1.172873 -0.058470 0.0
1.213471 -0.047730 0.0
1.247967 -0.032358 0.0
1.272574 -0.013936 0.0
1.284464 0.005188 0.0
1.283074 0.023085 0.0
1.269581 0.038888 0.0
1.245766 0.051918 0.0
1.213777 0.061659 0.0
1.175996 0.067763 0.0
1.134909 0.070045 0.0
1.092975 0.068472 0.0
1.052483 0.063213 0.0
1.015370 0.054740 0.0
0.983029 0.043917 0.0
0.956144 0.031973 0.0
0.934666 0.020282 0.0
0.918031 0.010044 0.0
0.905664 0.002037 0.0
0.897144 -0.003638 0.0
0.891847 -0.007433 0.0
0.889021 -0.010038 0.0
0.888178 -0.012160 0.0
0.889216 -0.014377 0.0
0.892383 -0.017100 0.0
0.898172 -0.020529 0.0
0.907158 -0.024622 0.0
0.919812 -0.029109 0.0
0.936342 -0.033536 0.0
0.956599 -0.037350 0.0
0.980069 -0.039978 0.0
1.005908 -0.040906 0.0
1.033020 -0.039744 0.0
1.060147 -0.036323 0.0
1.085953 -0.030856 0.0
1.109160 -0.024026 0.0
1.127675 -0.019689 0.0
1.001343 -0.006050 0.0
1.006683 -0.018472 0.0
1.017366 -0.031231 0.0
1.033511 -0.044189 0.0
1.055251 -0.057013 0.0
1.082597 -0.069094 0.0
1.115241 -0.079489 0.0
1.152330 -0.086953 0.0
1.192281 -0.090176 0.0
1.232696 -0.088069 0.0
1.270801 -0.080709 0.0
1.304260 -0.069144 0.0
1.331534 -0.054724 0.0
1.351802 -0.038685 0.0
1.364757 -0.022046 0.0
1.370464 -0.005654 0.0
1.369297 0.009746 0.0
1.361887 0.023493 0.0
1.349084 0.035001 0.0
1.331954 0.043771 0.0
1.311744 0.049411 0.0
1.289840 0.051651 0.0
1.267704 0.050356 0.0
1.246826 0.045529 0.0
1.228670 0.037317 0.0
1.214630 0.026018 0.0
1.206005 0.012107 0.0
1.203980 -0.003711 0.0
1.209479 -0.020404 0.0
1.222874 -0.036377 0.0
1.243627 -0.049461 0.0
1.269987 -0.057281 0.0
1.298964 -0.057937 0.0
1.326745 -0.050746 0.0
1.349499 -0.036642 0.0
1.364351 -0.017910 0.0
1.369990 0.002728 0.0
1.366430 0.023185 0.0
1.354411 0.042038 0.0
1.335063 0.058382 0.0
1.309710 0.071737 0.0
1.279721 0.081933 0.0
1.246407 0.088997 0.0
1.210978 0.093059 0.0
1.174538 0.094276 0.0
1.138079 0.092799 0.0
1.102500 0.088753 0.0
1.068596 0.082241 0.0
1.037053 0.073376 0.0
1.008432 0.062325 0.0
0.983198 0.049356 0.0
0.961790 0.034852 0.0
0.944701 0.019277 0.0
0.932436 0.003077 0.0
0.925375 -0.013231 0.0
0.923642 -0.029187 0.0
0.927159 -0.044494 0.0
0.935912 -0.059063 0.0
0.950138 -0.072875 0.0
0.970293 -0.085631 0.0
0.996759 -0.096470 0.0
1.029481 -0.103939 0.0
1.067691 -0.106233 0.0
1.109804 -0.101597 0.0
1.153408 -0.088806 0.0
1.195315 -0.067685 0.0
1.231690 -0.039590 0.0
1.258405 -0.007763 0.0
1.272555 0.023275 0.0
1.273891 0.050855 0.0
1.263857 0.073800 0.0
1.244357 0.091265 0.0
1.217556 0.102739 0.0
1.185691 0.108022 0.0
1.150906 0.107214 0.0
1.115099 0.100771 0.0
1.079802 0.089593 0.0
1.046136 0.075072 0.0
1.014866 0.058974 0.0
0.986503 0.043121 0.0
0.961369 0.028974 0.0
0.939521 0.017321 0.0
0.920748 0.008370 0.0
0.904747 0.001856 0.0
0.891232 -0.002986 0.0
0.880030 -0.007168 0.0
0.871305 -0.011682 0.0
0.865598 -0.017256 0.0
0.863647 -0.024211 0.0
0.866139 -0.032419 0.0
0.873499 -0.041327 0.0
0.885758 -0.050106 0.0
0.902543 -0.057822 0.0
0.923149 -0.063582 0.0
0.946638 -0.066630 0.0
0.971918 -0.066414 0.0
0.997810 -0.062672 0.0
1.023066 -0.055568 0.0
1.046373 -0.045827 0.0
1.065423 -0.035454 0.0
1.001297 -0.008691 0.0
1.006536 -0.026410 0.0
1.017197 -0.044638 0.0
1.033621 -0.063352 0.0
1.056254 -0.082225 0.0
1.085502 -0.100476 0.0
1.121474 -0.116723 0.0
1.163569 -0.128903 0.0
1.210111 -0.134720 0.0
1.257681 -0.131510 0.0
1.301963 -0.119657 0.0
1.339803 -0.101494 0.0
1.369649 -0.079493 0.0
1.391005 -0.055540 0.0
1.403867 -0.031008 0.0
1.408505 -0.007036 0.0
1.405435 0.015364 0.0
1.395390 0.035330 0.0
1.379321 0.052036 0.0
1.358427 0.064761 0.0
1.334113 0.072945 0.0
1.307929 0.076205 0.0
1.281513 0.074353 0.0
1.256529 0.067393 0.0
1.234615 0.055522 0.0
1.217342 0.039125 0.0
1.206212 0.018754 0.0
1.202691 -0.004813 0.0
1.208090 -0.030201 0.0
1.223186 -0.055070 0.0
1.247685 -0.076021 0.0
1.279793 -0.089188 0.0
1.316115 -0.091329 0.0
1.351974 -0.080993 0.0
1.382196 -0.059372 0.0
1.402456 -0.030293 0.0
1.410704 0.001226 0.0
1.407295 0.031656 0.0
1.393788 0.059093 0.0
1.372057 0.082407 0.0
1.344009 0.101112 0.0
1.311397 0.115159 0.0
1.275733 0.124749 0.0
1.238282 0.130185 0.0
1.200088 0.131783 0.0
1.162014 0.129825 0.0
1.124771 0.124549 0.0
1.088953 0.116166 0.0
1.055059 0.104888 0.0
1.023536 0.090957 0.0
0.994833 0.074662 0.0
0.969421 0.056366 0.0
0.947713 0.036559 0.0
0.929885 0.015888 0.0
0.915778 -0.004875 0.0
0.905098 -0.025129 0.0
0.897796 -0.044766 0.0
0.894436 -0.064184 0.0
0.896300 -0.083845 0.0
0.904990 -0.103506 0.0
0.921733 -0.121805 0.0
0.946871 -0.136463 0.0
0.979770 -0.144818 0.0
1.018998 -0.144353 0.0
1.062519 -0.133175 0.0
1.107775 -0.110479 0.0
1.151658 -0.077055 0.0
1.190427 -0.035782 0.0
1.219669 0.007901 0.0
1.236623 0.047940 0.0
1.241486 0.081886 0.0
1.235691 0.108473 0.0
1.221026 0.126997 0.0
1.199408 0.137247 0.0
1.172701 0.139480 0.0
1.142582 0.134431 0.0
1.110469 0.123342 0.0
1.077537 0.107919 0.0
1.044775 0.090160 0.0
1.013015 0.072058 0.0
0.982896 0.055291 0.0
0.954773 0.040974 0.0
0.928723 0.029541 0.0
0.904695 0.020713 0.0
0.882779 0.013588 0.0
0.863380 0.006859 0.0
0.847214 -0.000818 0.0
0.835183 -0.010382 0.0
0.828164 -0.022114 0.0
0.826738 -0.035581 0.0
0.831018 -0.049805 0.0
0.840669 -0.063539 0.0
0.855028 -0.075533 0.0
0.873231 -0.084681 0.0
0.894305 -0.090093 0.0
0.917208 -0.091134 0.0
0.940848 -0.087484 0.0
0.964063 -0.079226 0.0
0.985570 -0.066983 0.0
1.003449 -0.051226 0.0
1.001231 -0.011219 0.0
1.006248 -0.034137 0.0
1.016612 -0.057935 0.0
1.032949 -0.082816 0.0
1.056161 -0.108606 0.0
1.087309 -0.134491 0.0
1.127315 -0.158685 0.0
1.176253 -0.177973 0.0
1.232899 -0.188838 0.0
1.291661 -0.183722 0.0
1.344614 -0.164681 0.0
1.387556 -0.137253 0.0
1.419718 -0.105742 0.0
1.441637 -0.072566 0.0
1.453895 -0.039101 0.0
1.456943 -0.006629 0.0
1.451320 0.023650 0.0
1.437753 0.050656 0.0
1.417275 0.073257 0.0
1.391245 0.090463 0.0
1.361282 0.101520 0.0
1.329167 0.105928 0.0
1.296770 0.103443 0.0
1.265981 0.094076 0.0
1.238647 0.078088 0.0
1.216501 0.055979 0.0
1.201112 0.028420 0.0
1.193953 -0.003798 0.0
1.196515 -0.039177 0.0
1.209951 -0.074625 0.0
1.234355 -0.105369 0.0
1.268389 -0.125981 0.0
1.309293 -0.131763 0.0
1.352825 -0.119950 0.0
1.393182 -0.090994 0.0
1.423814 -0.049563 0.0
1.439804 -0.003742 0.0
1.440392 0.039445 0.0
1.427915 0.077287 0.0
1.405277 0.108582 0.0
1.375211 0.133052 0.0
1.340053 0.150990 0.0
1.301683 0.162953 0.0
1.261557 0.169558 0.0
1.220785 0.171376 0.0
1.180206 0.168887 0.0
1.140455 0.162480 0.0
1.102030 0.152478 0.0
1.065343 0.139158 0.0
1.030775 0.122778 0.0
0.998696 0.103623 0.0
0.969385 0.082128 0.0
0.942848 0.059042 0.0
0.918651 0.035430 0.0
0.896048 0.012293 0.0
0.874551 -0.010119 0.0
0.854813 -0.032736 0.0
0.838967 -0.057008 0.0
0.829945 -0.083862 0.0
0.830234 -0.112469 0.0
0.840887 -0.140238 0.0
0.861475 -0.163756 0.0
0.890683 -0.179633 0.0
0.926854 -0.184939 0.0
0.968222 -0.177478 0.0
1.012890 -0.156099 0.0
1.058687 -0.121116 0.0
1.102974 -0.074776 0.0
1.142315 -0.021688 0.0
1.172476 0.030414 0.0
1.191189 0.075836 0.0
1.198899 0.112609 0.0
1.196737 0.139690 0.0
1.186140 0.156769 0.0
1.168632 0.164173 0.0
1.145677 0.162812 0.0
1.118623 0.154129 0.0
1.088685 0.140002 0.0
1.056955 0.122569 0.0
1.024380 0.103984 0.0
0.991702 0.086163 0.0
0.959435 0.070490 0.0
0.927963 0.057547 0.0
0.897746 0.046952 0.0
0.869539 0.037473 0.0
0.844443 0.027469 0.0
0.823708 0.015473 0.0
0.808367 0.000698 0.0
0.798990 -0.016798 0.0
0.795683 -0.036163 0.0
0.798162 -0.055982 0.0
0.805838 -0.074688 0.0
0.817938 -0.090843 0.0
0.833608 -0.103244 0.0
0.851950 -0.110945 0.0
0.872037 -0.113271 0.0
0.892898 -0.109848 0.0
0.913485 -0.100663 0.0
0.932637 -0.086205 0.0
0.948811 -0.066057 0.0
1.001096 -0.013547 0.0
1.005601 -0.041331 0.0
1.015070 -0.070573 0.0
1.030434 -0.101879 0.0
1.053166 -0.135487 0.0
1.085285 -0.170879 0.0
1.129159 -0.206177 0.0
1.186436 -0.236696 0.0
1.258425 -0.258751 0.0
1.333982 -0.248127 0.0
1.396438 -0.215684 0.0
1.441994 -0.174749 0.0
1.473400 -0.131813 0.0
1.493770 -0.088785 0.0
1.504535 -0.045905 0.0
1.505816 -0.004155 0.0
1.497561 0.035054 0.0
1.480164 0.070216 0.0
1.454639 0.099701 0.0
1.422532 0.122156 0.0
1.385719 0.136604 0.0
1.346253 0.142425 0.0
1.306265 0.139331 0.0
1.267895 0.127348 0.0
1.233212 0.106833 0.0
1.204085 0.078506 0.0
1.181926 0.043442 0.0
1.167484 0.002782 0.0
1.161519 -0.042356 0.0
1.165218 -0.088582 0.0
1.179358 -0.129956 0.0
1.204084 -0.160154 0.0
1.239152 -0.173563 0.0
1.283143 -0.165673 0.0
1.331995 -0.134480 0.0
1.378125 -0.082839 0.0
1.411777 -0.020109 0.0
1.426853 0.040148 0.0
1.424407 0.091507 0.0
1.408509 0.132897 0.0
1.382797 0.164515 0.0
1.350250 0.187232 0.0
1.313192 0.202138 0.0
1.273396 0.210294 0.0
1.232194 0.212614 0.0
1.190581 0.209842 0.0
1.149299 0.202558 0.0
1.108912 0.191212 0.0
1.069869 0.176154 0.0
1.032538 0.157680 0.0
0.997163 0.136175 0.0
0.963675 0.112374 0.0
0.931460 0.087548 0.0
0.899397 0.063184 0.0
0.866566 0.039972 0.0
0.833464 0.016800 0.0
0.802685 -0.009139 0.0
0.778463 -0.040536 0.0
0.764734 -0.077583 0.0
0.763089 -0.117392 0.0
0.772714 -0.155593 0.0
0.791717 -0.187992 0.0
0.818231 -0.211119 0.0
0.850787 -0.222180 0.0
0.888208 -0.219026 0.0
0.929364 -0.200373 0.0
0.972936 -0.166212 0.0
1.017231 -0.118263 0.0
1.059997 -0.060307 0.0
1.097727 0.001142 0.0
1.126748 0.057374 0.0
1.145597 0.104511 0.0
1.154574 0.140972 0.0
1.154474 0.166184 0.0
1.146346 0.180396 0.0
1.131343 0.184547 0.0
1.110634 0.180156 0.0
1.085357 0.169190 0.0
1.056579 0.153889 0.0
1.025249 0.136568 0.0
0.992172 0.119335 0.0
0.958049 0.103708 0.0
0.923632 0.090219 0.0
0.889918 0.078212 0.0
0.858243 0.066095 0.0
0.830164 0.052022 0.0
0.807127 0.034691 0.0
0.790121 0.013827 0.0
0.779450 -0.009879 0.0
0.774831 -0.035156 0.0
0.775694 -0.060332 0.0
0.781360 -0.083678 0.0
0.791081 -0.103675 0.0
0.804079 -0.119080 0.0
0.819552 -0.128925 0.0
0.836680 -0.132507 0.0
0.854607 -0.129400 0.0
0.872416 -0.119506 0.0
0.889095 -0.103195 0.0
0.903396 -0.079541 0.0
1.000850 -0.015493 0.0
1.004380 -0.047420 0.0
1.011973 -0.081546 0.0
1.024792 -0.119089 0.0
1.044860 -0.161075 0.0
1.075368 -0.207918 0.0
1.120937 -0.258581 0.0
1.186524 -0.307156 0.0
1.281752 -0.355507 0.0
1.379750 -0.324927 0.0
1.444536 -0.266126 0.0
1.481558 -0.206884 0.0
1.503273 -0.152799 0.0
1.517293 -0.102191 0.0
1.525692 -0.051663 0.0
1.526553 -0.000539 0.0
1.517476 0.048771 0.0
1.497809 0.093564 0.0
1.468398 0.131289 0.0
1.430966 0.160106 0.0
1.387626 0.178806 0.0
1.340651 0.186664 0.0
1.292367 0.183362 0.0
1.245094 0.168960 0.0
1.201066 0.143932 0.0
1.162291 0.109308 0.0
1.130065 0.067025 0.0
1.103813 0.019893 0.0
1.081213 -0.030902 0.0
1.062268 -0.084789 0.0
1.050236 -0.135856 0.0
1.049725 -0.178469 0.0
1.065603 -0.206194 0.0
1.100143 -0.211573 0.0
1.151299 -0.188587 0.0
1.212450 -0.136012 0.0
1.272430 -0.060568 0.0
1.317187 0.020773 0.0
1.340403 0.090113 0.0
1.345502 0.145089 0.0
1.336852 0.186685 0.0
1.317905 0.216556 0.0
1.291360 0.236417 0.0
1.259354 0.247817 0.0
1.223597 0.252050 0.0
1.185456 0.250160 0.0
1.146016 0.242961 0.0
1.106130 0.231081 0.0
1.066461 0.214998 0.0
1.027463 0.195164 0.0
0.989227 0.172302 0.0
0.951174 0.147787 0.0
0.911946 0.123578 0.0
0.870142 0.101020 0.0
0.826087 0.079022 0.0
0.783286 0.053654 0.0
0.747570 0.020501 0.0
0.723813 -0.022196 0.0
0.713553 -0.071935 0.0
0.715317 -0.123159 0.0
0.726370 -0.170504 0.0
0.744320 -0.210033 0.0
0.767625 -0.238897 0.0
0.795463 -0.254795 0.0
0.827405 -0.255774 0.0
0.863078 -0.240454 0.0
0.901888 -0.208513 0.0
0.942845 -0.161214 0.0
0.984450 -0.101727 0.0
1.024513 -0.035230 0.0
1.059353 0.029886 0.0
1.085977 0.086527 0.0
1.103667 0.132288 0.0
1.112487 0.166148 0.0
1.112932 0.188115 0.0
1.105749 0.199013 0.0
1.091825 0.200323 0.0
1.072106 0.194020 0.0
1.047534 0.182409 0.0
1.019008 0.167904 0.0
0.987386 0.152698 0.0
0.953575 0.138278 0.0
0.918681 0.124959 0.0
0.884123 0.111744 0.0
0.851586 0.096774 0.0
0.822773 0.078235 0.0
0.799061 0.055227 0.0
0.781252 0.028106 0.0
0.769528 -0.001764 0.0
0.763548 -0.032670 0.0
0.762703 -0.062836 0.0
0.766334 -0.090470 0.0
0.773740 -0.114011 0.0
0.784194 -0.132196 0.0
0.796954 -0.144043 0.0
0.811271 -0.148835 0.0
0.826388 -0.146116 0.0
0.841510 -0.135721 0.0
0.855785 -0.117936 0.0
0.868191 -0.091507 0.0
1.000462 -0.016805 0.0
1.002422 -0.051597 0.0
1.006826 -0.089366 0.0
1.014826 -0.132089 0.0
1.028663 -0.181980 0.0
1.052462 -0.241321 0.0
1.093563 -0.311849 0.0
1.162971 -0.388882 0.0
1.290564 -0.496601 0.0
1.408711 -0.399978 0.0
1.447916 -0.295066 0.0
1.450829 -0.217879 0.0
1.446538 -0.159228 0.0
1.446296 -0.109539 0.0
1.452231 -0.058649 0.0
1.457726 0.000090 0.0
1.454062 0.060883 0.0
1.437952 0.117229 0.0
1.410050 0.164937 0.0
1.372257 0.201682 0.0
1.326707 0.226119 0.0
1.275570 0.237464 0.0
1.221038 0.235377 0.0
1.165287 0.219970 0.0
1.110367 0.191870 0.0
1.058129 0.152383 0.0
1.009878 0.104428 0.0
0.964691 0.053927 0.0
0.916835 0.005520 0.0
0.862069 -0.047499 0.0
0.811398 -0.110443 0.0
0.783419 -0.175392 0.0
0.786761 -0.228491 0.0
0.819594 -0.256650 0.0
0.875732 -0.250804 0.0
0.948206 -0.207420 0.0
1.029248 -0.130182 0.0
1.107526 -0.032647 0.0
1.168352 0.059491 0.0
1.206567 0.132397 0.0
1.226637 0.187957 0.0
1.232112 0.228754 0.0
1.225785 0.257091 0.0
1.210010 0.274924 0.0
1.186839 0.283872 0.0
1.158055 0.285263 0.0
1.125180 0.280173 0.0
1.089475 0.269461 0.0
1.051907 0.253855 0.0
1.013011 0.234201 0.0
0.972577 0.211935 0.0
0.929454 0.189329 0.0
0.882222 0.168497 0.0
0.831139 0.148988 0.0
0.780032 0.126217 0.0
0.735635 0.093657 0.0
0.704063 0.047785 0.0
0.687514 -0.009173 0.0
0.684001 -0.071185 0.0
0.689838 -0.131510 0.0
0.701927 -0.185295 0.0
0.718296 -0.229560 0.0
0.737931 -0.262310 0.0
0.760534 -0.281824 0.0
0.786252 -0.286407 0.0
0.815356 -0.274599 0.0
0.847915 -0.245737 0.0
0.883556 -0.200588 0.0
0.921352 -0.141753 0.0
0.959783 -0.073698 0.0
0.996278 -0.002982 0.0
1.027469 0.061581 0.0
1.051197 0.115815 0.0
1.066885 0.158113 0.0
1.074488 0.188103 0.0
1.074316 0.206378 0.0
1.066916 0.214281 0.0
1.052975 0.213722 0.0
1.033254 0.206998 0.0
1.008564 0.196530 0.0
0.979800 0.184459 0.0
0.948036 0.172092 0.0
0.914639 0.159437 0.0
0.881268 0.145195 0.0
0.849722 0.127406 0.0
0.821646 0.104492 0.0
0.798256 0.076072 0.0
0.780219 0.043107 0.0
0.767708 0.007471 0.0
0.760492 -0.028709 0.0
0.758089 -0.063551 0.0
0.759914 -0.095210 0.0
0.765313 -0.122075 0.0
0.773577 -0.142851 0.0
0.783984 -0.156555 0.0
0.795823 -0.162480 0.0
0.808410 -0.160174 0.0
0.821069 -0.149443 0.0
0.833102 -0.130522 0.0
0.843671 -0.101896 0.0
0.999935 -0.017202 0.0
0.999723 -0.052948 0.0
0.999555 -0.092250 0.0
1.000127 -0.137778 0.0
1.003074 -0.193076 0.0
1.012140 -0.263089 0.0
1.035899 -0.354941 0.0
1.092936 -0.472236 0.0
1.249583 -0.697487 0.0
1.356892 -0.424548 0.0
1.309637 -0.262445 0.0
1.242687 -0.186463 0.0
1.195136 -0.138802 0.0
1.170902 -0.105489 0.0
1.173508 -0.071240 0.0
1.194893 -0.014199 0.0
1.213411 0.060319 0.0
1.216779 0.130535 0.0
1.205879 0.190433 0.0
1.182249 0.237611 0.0
1.147258 0.270730 0.0
1.102328 0.288921 0.0
1.048993 0.291786 0.0
0.988538 0.279768 0.0
0.920649 0.254882 0.0
0.841416 0.220843 0.0
0.745016 0.180619 0.0
0.634688 0.133251 0.0
0.532963 0.075777 0.0
0.467383 0.002590 0.0
0.446794 -0.089272 0.0
0.461436 -0.183225 0.0
0.498425 -0.260988 0.0
0.550696 -0.309258 0.0
0.615892 -0.319531 0.0
0.692843 -0.288119 0.0
0.779622 -0.217305 0.0
0.872333 -0.116513 0.0
0.960346 -0.005482 0.0
1.030392 0.089110 0.0
1.079472 0.162096 0.0
1.111185 0.217428 0.0
1.127983 0.257947 0.0
1.131984 0.285841 0.0
1.125199 0.302910 0.0
1.109530 0.310678 0.0
1.086714 0.310449 0.0
1.058246 0.303358 0.0
1.025236 0.290537 0.0
0.988126 0.273525 0.0
0.946459 0.254713 0.0
0.899292 0.236842 0.0
0.846859 0.220648 0.0
0.792628 0.202151 0.0
0.743302 0.173488 0.0
0.705664 0.128421 0.0
0.682894 0.067363 0.0
0.673882 -0.003189 0.0
0.675229 -0.075002 0.0
0.683397 -0.141699 0.0
0.695731 -0.199529 0.0
0.710523 -0.246486 0.0
0.726874 -0.281370 0.0
0.744618 -0.303110 0.0
0.764198 -0.310418 0.0
0.786393 -0.301886 0.0
0.811910 -0.276526 0.0
0.841014 -0.234544 0.0
0.873330 -0.177910 0.0
0.907831 -0.110474 0.0
0.942819 -0.037690 0.0
0.975287 0.032629 0.0
1.002369 0.093957 0.0
1.022739 0.143913 0.0
1.035806 0.181634 0.0
1.041444 0.207381 0.0
1.039844 0.222278 0.0
1.031409 0.228101 0.0
1.016696 0.227054 0.0
0.996405 0.221455 0.0
0.971435 0.213269 0.0
0.942962 0.203519 0.0
0.912478 0.191892 0.0
0.881710 0.176880 0.0
0.852391 0.156585 0.0
0.826004 0.129776 0.0
0.803604 0.096578 0.0
0.785805 0.058437 0.0
0.772858 0.017599 0.0
0.764725 -0.023488 0.0
0.761106 -0.062751 0.0
0.761512 -0.098242 0.0
0.765329 -0.128259 0.0
0.771854 -0.151456 0.0
0.780354 -0.166855 0.0
0.790127 -0.173791 0.0
0.800538 -0.171861 0.0
0.811012 -0.160889 0.0
0.820999 -0.141096 0.0
0.829820 -0.110712 0.0
0.999321 -0.016457 0.0
0.996561 -0.050722 0.0
0.990884 -0.088630 0.0
0.982028 -0.133114 0.0
0.969828 -0.188487 0.0
0.954895 -0.261811 0.0
0.940916 -0.365999 0.0
0.943199 -0.520497 0.0
1.048153 -0.910826 0.0
1.046147 -0.207602 0.0
0.847604 -0.112267 0.0
0.699126 -0.108800 0.0
0.619202 -0.088990 0.0
0.577883 -0.089749 0.0
0.586483 -0.098186 0.0
0.643292 -0.065447 0.0
0.716590 0.019750 0.0
0.774505 0.109822 0.0
0.809825 0.186725 0.0
0.824628 0.250146 0.0
0.818922 0.298892 0.0
0.792533 0.332079 0.0
0.744778 0.349717 0.0
0.673892 0.353178 0.0
0.578336 0.344916 0.0
0.462699 0.325678 0.0
0.345147 0.289735 0.0
0.254464 0.225146 0.0
0.210301 0.129771 0.0
0.211403 0.013075 0.0
0.240999 -0.108764 0.0
0.281960 -0.219336 0.0
0.327735 -0.307641 0.0
0.378537 -0.365677 0.0
0.436953 -0.386725 0.0
0.505515 -0.366436 0.0
0.585057 -0.305308 0.0
0.674138 -0.210303 0.0
0.768866 -0.094433 0.0
0.857497 0.019382 0.0
0.928592 0.111649 0.0
0.981299 0.183455 0.0
1.017893 0.238529 0.0
1.039992 0.279160 0.0
1.049208 0.307160 0.0
1.047196 0.324110 0.0
1.035567 0.331463 0.0
1.015729 0.330648 0.0
0.988645 0.323342 0.0
0.954563 0.311911 0.0
0.913172 0.299384 0.0
0.864769 0.287742 0.0
0.812179 0.274772 0.0
0.761522 0.252915 0.0
0.720030 0.213543 0.0
0.692242 0.153792 0.0
0.678304 0.078700 0.0
0.675514 -0.002724 0.0
0.680583 -0.081883 0.0
0.690668 -0.153072 0.0
0.703536 -0.213358 0.0
0.717535 -0.261448 0.0
0.731636 -0.296861 0.0
0.745546 -0.319272 0.0
0.759744 -0.328035 0.0
0.775322 -0.322042 0.0
0.793565 -0.300131 0.0
0.815439 -0.261917 0.0
0.841198 -0.208613 0.0
0.870289 -0.143362 0.0
0.901454 -0.070954 0.0
0.932509 0.002369 0.0
0.960588 0.069057 0.0
0.983543 0.125489 0.0
1.000322 0.170212 0.0
1.010401 0.203085 0.0
1.013626 0.224949 0.0
1.010119 0.237373 0.0
1.000230 0.242385 0.0
0.984539 0.242105 0.0
0.963910 0.238218 0.0
0.939539 0.231415 0.0
0.912921 0.221097 0.0
0.885701 0.205663 0.0
0.859437 0.183383 0.0
0.835406 0.153397 0.0
0.814528 0.116235 0.0
0.797424 0.073684 0.0
0.784478 0.028245 0.0
0.775849 -0.017372 0.0
0.771421 -0.060819 0.0
0.770819 -0.099978 0.0
0.773476 -0.132997 0.0
0.778689 -0.158455 0.0
0.785707 -0.175374 0.0
0.793818 -0.183157 0.0
0.802408 -0.181497 0.0
0.810975 -0.170295 0.0
0.819106 -0.149807 0.0
0.826267 -0.117984 0.0
0.998730 -0.014508 0.0
0.993511 -0.044693 0.0
0.982456 -0.077928 0.0
0.964145 -0.116650 0.0
0.935927 -0.164532 0.0
0.892921 -0.227828 0.0
0.825553 -0.318634 0.0
0.716142 -0.460734 0.0
0.324054 -0.792368 0.0
-0.474530 0.288705 0.0
-0.474530 0.000000 0.0
-0.042566 -0.030088 0.0
-0.073309 -0.069512 0.0
-0.019865 -0.121352 0.0
0.070666 -0.165713 0.0
0.163935 -0.147997 0.0
0.256605 -0.063668 0.0
0.340978 0.050951 0.0
0.401405 0.149848 0.0
0.437878 0.235747 0.0
0.448744 0.308131 0.0
0.431977 0.365998 0.0
0.386476 0.409055 0.0
0.314374 0.436828 0.0
0.225060 0.446137 0.0
0.137479 0.427675 0.0
0.076144 0.366625 0.0
0.059031 0.256052 0.0
0.080821 0.121237 0.0
0.122836 -0.021509 0.0
0.170874 -0.151815 0.0
0.216898 -0.263271 0.0
0.259152 -0.351736 0.0
0.299532 -0.412764 0.0
0.342683 -0.441206 0.0
0.394169 -0.432004 0.0
0.457915 -0.383029 0.0
0.534424 -0.298172 0.0
0.620895 -0.187763 0.0
0.711636 -0.066661 0.0
0.794569 0.043664 0.0
0.861042 0.132260 0.0
0.911593 0.202578 0.0
0.947469 0.257135 0.0
0.969773 0.297665 0.0
0.979697 0.325692 0.0
0.978459 0.342748 0.0
0.967099 0.350560 0.0
0.946234 0.351380 0.0
0.916018 0.348171 0.0
0.876833 0.343700 0.0
0.830825 0.337838 0.0
0.783129 0.324962 0.0
0.740868 0.295641 0.0
0.709847 0.243329 0.0
0.691937 0.169703 0.0
0.685560 0.083104 0.0
0.687907 -0.006686 0.0
0.696315 -0.091398 0.0
0.708479 -0.165806 0.0
0.722404 -0.227417 0.0
0.736425 -0.275409 0.0
0.749340 -0.309916 0.0
0.760614 -0.331400 0.0
0.770551 -0.340043 0.0
0.780298 -0.335358 0.0
0.791536 -0.316297 0.0
0.805907 -0.281995 0.0
0.824411 -0.232798 0.0
0.847094 -0.170950 0.0
0.873090 -0.100527 0.0
0.900811 -0.026835 0.0
0.927730 0.043263 0.0
0.951355 0.104702 0.0
0.970194 0.155381 0.0
0.983344 0.194688 0.0
0.990337 0.223128 0.0
0.991036 0.242002 0.0
0.985592 0.253090 0.0
0.974460 0.258224 0.0
0.958436 0.258752 0.0
0.938658 0.255030 0.0
0.916522 0.246237 0.0
0.893491 0.230774 0.0
0.870887 0.207139 0.0
0.849769 0.174791 0.0
0.830944 0.134544 0.0
0.815046 0.088377 0.0
0.802579 0.038964 0.0
0.793897 -0.010780 0.0
0.789063 -0.058149 0.0
0.787806 -0.100790 0.0
0.789624 -0.136660 0.0
0.793839 -0.164221 0.0
0.799693 -0.182481 0.0
0.806458 -0.190925 0.0
0.813518 -0.189378 0.0
0.820418 -0.177880 0.0
0.826849 -0.156782 0.0
0.832420 -0.123741 0.0
0.998291 -0.011529 0.0
0.991256 -0.035417 0.0
0.976284 -0.061176 0.0
0.951248 -0.090056 0.0
0.912037 -0.123697 0.0
0.850714 -0.164334 0.0
0.750834 -0.214879 0.0
0.573260 -0.277504 0.0
0.229032 -0.342467 0.0
0.000000 0.288705 0.0
-0.000000 -0.000000 0.0
0.000000 0.000000 0.0
-0.040457 -0.040667 0.0
-0.086616 -0.157272 0.0
-0.086373 -0.220568 0.0
-0.067951 -0.204834 0.0
-0.036065 -0.131386 0.0
0.013708 -0.015476 0.0
0.067740 0.101816 0.0
0.105512 0.209534 0.0
0.121830 0.307161 0.0
0.113990 0.391575 0.0
0.083776 0.459193 0.0
0.039443 0.503124 0.0
-0.004297 0.512895 0.0
-0.031657 0.475858 0.0
-0.023839 0.371960 0.0
0.019763 0.224228 0.0
0.080977 0.070056 0.0
0.144636 -0.076003 0.0
0.201060 -0.201781 0.0
0.247736 -0.306004 0.0
0.283968 -0.387487 0.0
0.311511 -0.444936 0.0
0.335256 -0.475928 0.0
0.362750 -0.476261 0.0
0.401747 -0.441515 0.0
0.456607 -0.371054 0.0
0.526371 -0.271115 0.0
0.606024 -0.153702 0.0
0.687685 -0.033889 0.0
0.760531 0.070494 0.0
0.818913 0.155412 0.0
0.863588 0.223750 0.0
0.895144 0.277191 0.0
0.914226 0.317160 0.0
0.921506 0.345238 0.0
0.917506 0.363429 0.0
0.902501 0.374382 0.0
0.876852 0.381034 0.0
0.842072 0.384801 0.0
0.802107 0.382710 0.0
0.763308 0.366586 0.0
0.732111 0.327476 0.0
0.712068 0.262558 0.0
0.703097 0.177354 0.0
0.703165 0.081763 0.0
0.710045 -0.014571 0.0
0.721643 -0.103519 0.0
0.735931 -0.180135 0.0
0.751063 -0.242146 0.0
0.765409 -0.289048 0.0
0.777692 -0.321475 0.0
0.787177 -0.340601 0.0
0.793899 -0.347503 0.0
0.798818 -0.342563 0.0
0.803716 -0.325227 0.0
0.810727 -0.294445 0.0
0.821612 -0.249737 0.0
0.837171 -0.192254 0.0
0.857083 -0.125131 0.0
0.880130 -0.052998 0.0
0.904242 0.018396 0.0
0.926979 0.083207 0.0
0.946446 0.138572 0.0
0.961429 0.183364 0.0
0.971186 0.217701 0.0
0.975351 0.242565 0.0
0.973900 0.259422 0.0
0.967161 0.269762 0.0
0.955828 0.274571 0.0
0.940924 0.273893 0.0
0.923670 0.266763 0.0
0.905293 0.251656 0.0
0.886850 0.227303 0.0
0.869183 0.193412 0.0
0.852977 0.150954 0.0
0.838863 0.101980 0.0
0.827439 0.049252 0.0
0.819179 -0.004126 0.0
0.814286 -0.055075 0.0
0.812628 -0.100950 0.0
0.813789 -0.139479 0.0
0.817153 -0.168980 0.0
0.821993 -0.188417 0.0
0.827580 -0.197340 0.0
0.833289 -0.195732 0.0
0.838680 -0.183818 0.0
0.843518 -0.162114 0.0
0.847536 -0.127998 0.0
0.998090 -0.007910 0.0
0.990248 -0.024159 0.0
0.973665 -0.040880 0.0
0.946294 -0.057946 0.0
0.904460 -0.074761 0.0
0.841998 -0.089485 0.0
0.749543 -0.097393 0.0
0.615783 -0.083656 0.0
0.438233 -0.008811 0.0
0.169667 0.151561 0.0
0.000000 0.000000 0.0
-0.000000 -0.000000 0.0
0.000000 0.000000 0.0
-0.073917 -0.075785 0.0
-0.163712 -0.210636 0.0
-0.182174 -0.214725 0.0
-0.186554 -0.149002 0.0
-0.178460 -0.055729 0.0
-0.150970 0.060547 0.0
-0.117816 0.179876 0.0
-0.093018 0.295703 0.0
-0.081565 0.399419 0.0
-0.081318 0.481316 0.0
-0.084208 0.528224 0.0
-0.077918 0.525245 0.0
-0.044456 0.457404 0.0
0.019430 0.318710 0.0
0.096897 0.156409 0.0
0.175477 -0.001919 0.0
0.246838 -0.139050 0.0
0.305547 -0.253867 0.0
0.350700 -0.345748 0.0
0.381603 -0.414879 0.0
0.398845 -0.462329 0.0
0.405487 -0.488922 0.0
0.408194 -0.493469 0.0
0.416746 -0.471856 0.0
0.440555 -0.419383 0.0
0.483883 -0.335880 0.0
0.543998 -0.228705 0.0
0.613778 -0.110326 0.0
0.683483 0.004380 0.0
0.744357 0.102270 0.0
0.793296 0.183277 0.0
0.830352 0.249054 0.0
0.855615 0.300953 0.0
0.869181 0.340599 0.0
0.871094 0.370155 0.0
0.861507 0.392249 0.0
0.841346 0.408977 0.0
0.813366 0.419618 0.0
0.782661 0.418562 0.0
0.755436 0.396758 0.0
0.736364 0.347573 0.0
0.726890 0.271978 0.0
0.725981 0.177814 0.0
0.731915 0.075300 0.0
0.743038 -0.026111 0.0
0.757570 -0.118111 0.0
0.773654 -0.195915 0.0
0.789580 -0.257423 0.0
0.803857 -0.302394 0.0
0.815297 -0.331851 0.0
0.823129 -0.347541 0.0
0.827182 -0.351339 0.0
0.828113 -0.344577 0.0
0.827510 -0.327509 0.0
0.827667 -0.299331 0.0
0.830934 -0.259004 0.0
0.838926 -0.206539 0.0