# vtk DataFile Version 3.0
Vector Field
ASCII
DATASET RECTILINEAR_GRID
DIMENSIONS 100 26 1
X_COORDINATES 100 double
0.050000 0.150000 0.250000 0.350000 0.450000 0.550000 0.650000 0.750000 0.850000 0.950000 1.050000 1.150000 1.250000 1.350000 1.450000 1.550000 1.650000 1.750000 1.850000 1.950000 2.050000 2.150000 2.250000 2.350000 2.450000 2.550000 2.650000 2.750000 2.850000 2.950000 3.050000 3.150000 3.250000 3.350000 3.450000 3.550000 3.650000 3.750000 3.850000 3.950000 4.050000 4.150000 4.250000 4.350000 4.450000 4.550000 4.650000 4.750000 4.850000 4.950000 5.050000 5.150000 5.250000 5.350000 5.450000 5.550000 5.650000 5.750000 5.850000 5.950000 6.050000 6.150000 6.250000 6.350000 6.450000 6.550000 6.650000 6.750000 6.850000 6.950000 7.050000 7.150000 7.250000 7.350000 7.450000 7.550000 7.650000 7.750000 7.850000 7.950000 8.050000 8.150000 8.250000 8.350000 8.450000 8.550000 8.650000 8.750000 8.850000 8.950000 9.050000 9.150000 9.250000 9.350000 9.450000 9.550000 9.650000 9.750000 9.850000 9.950000 
Y_COORDINATES 26 double
0.050000 0.150000 0.250000 0.350000 0.450000 0.550000 0.650000 0.750000 0.850000 0.950000 1.050000 1.150000 1.250000 1.350000 1.450000 1.550000 1.650000 1.750000 1.850000 1.950000 2.050000 2.150000 2.250000 2.350000 2.450000 2.550000 
Z_COORDINATES 1 double
0.0
POINT_DATA 2600
VECTORS Vektorfeld double
0.997729 0.002271 0.0
0.993169 0.002289 0.0
0.990095 0.000785 0.0
0.990643 -0.001332 0.0
0.995627 -0.003651 0.0
1.005175 -0.005897 0.0
1.018883 -0.007811 0.0
1.035827 -0.009133 0.0
1.054603 -0.009643 0.0
1.073463 -0.009217 0.0
1.090586 -0.007905 0.0
1.104398 -0.005906 0.0
1.113808 -0.003504 0.0
1.118317 -0.001005 0.0
1.118076 0.001246 0.0
1.113629 0.003201 0.0
1.105666 0.004763 0.0
1.095036 0.005867 0.0
1.082674 0.006495 0.0
1.069497 0.006682 0.0
1.056305 0.006510 0.0
1.043685 0.006111 0.0
1.031901 0.005673 0.0
1.020800 0.005428 0.0
1.009760 0.005613 0.0
0.997726 0.006422 0.0
0.983356 0.007947 0.0
0.965259 0.010150 0.0
0.942234 0.012875 0.0
0.913468 0.015892 0.0
0.878634 0.018942 0.0
0.837917 0.021774 0.0
0.791980 0.024163 0.0
0.741895 0.025922 0.0
0.689074 0.026900 0.0
0.635191 0.026983 0.0
0.582117 0.026091 0.0
0.531836 0.024190 0.0
0.486372 0.021273 0.0
0.447849 0.017250 0.0
0.418831 0.011767 0.0
0.402483 0.004581 0.0
0.400394 -0.002491 0.0
0.409627 -0.006742 0.0
0.425161 -0.008793 0.0
0.443375 -0.009421 0.0
0.461977 -0.009181 0.0
0.479552 -0.008393 0.0
0.495167 -0.007222 0.0
0.508152 -0.005763 0.0
0.518037 -0.004121 0.0
0.524602 -0.002444 0.0
0.527889 -0.000843 0.0
0.527624 0.001109 0.0
0.522658 0.003857 0.0
0.511690 0.007111 0.0
0.494052 0.010526 0.0
0.469947 0.013579 0.0
0.440846 0.015522 0.0
0.409741 0.015583 0.0
0.380639 0.013519 0.0
0.357078 0.010043 0.0
0.340541 0.006495 0.0
0.330141 0.003905 0.0
0.323837 0.002400 0.0
0.319975 0.001462 0.0
0.317909 0.000604 0.0
0.317531 -0.000226 0.0
0.318683 -0.000925 0.0
0.321005 -0.001397 0.0
0.323987 -0.001585 0.0
0.327146 -0.001573 0.0
0.330104 -0.001385 0.0
0.332538 -0.001048 0.0
0.334174 -0.000589 0.0
0.334745 0.000018 0.0
0.333841 0.000887 0.0
0.331130 0.001824 0.0
0.326777 0.002530 0.0
0.321418 0.002829 0.0
0.315948 0.002641 0.0
0.311367 0.001940 0.0
0.308582 0.000845 0.0
0.307939 -0.000202 0.0
0.308862 -0.000721 0.0
0.310438 -0.000855 0.0
0.312101 -0.000808 0.0
0.313592 -0.000684 0.0
0.314802 -0.000525 0.0
0.315681 -0.000354 0.0
0.316229 -0.000195 0.0
0.316518 -0.000095 0.0
0.316772 -0.000159 0.0
0.317326 -0.000395 0.0
0.318425 -0.000704 0.0
0.320169 -0.001040 0.0
0.322461 -0.001252 0.0
0.324956 -0.001242 0.0
0.327190 -0.000993 0.0
0.328547 -0.000364 0.0
1.003025 0.001517 0.0
1.011764 -0.001137 0.0
1.025308 -0.006260 0.0
1.042999 -0.012525 0.0
1.064720 -0.019163 0.0
1.090310 -0.025525 0.0
1.119339 -0.030920 0.0
1.150977 -0.034606 0.0
1.183942 -0.035911 0.0
1.216576 -0.034443 0.0
1.247123 -0.030350 0.0
1.274112 -0.024264 0.0
1.296593 -0.017038 0.0
1.314144 -0.009531 0.0
1.326666 -0.002509 0.0
1.334470 0.003599 0.0
1.338323 0.008476 0.0
1.339169 0.011936 0.0
1.338023 0.013933 0.0
1.335884 0.014561 0.0
1.333644 0.014063 0.0
1.331974 0.012847 0.0
1.331206 0.011489 0.0
1.331214 0.010703 0.0
1.331354 0.011238 0.0
1.330478 0.013708 0.0
1.327098 0.018411 0.0
1.319663 0.025219 0.0
1.306850 0.033644 0.0
1.287767 0.042971 0.0
1.262056 0.052408 0.0
1.229891 0.061190 0.0
1.191928 0.068647 0.0
1.149227 0.074222 0.0
1.103178 0.077470 0.0
1.055424 0.078049 0.0
1.007806 0.075719 0.0
0.962302 0.070349 0.0
0.920988 0.061892 0.0
0.885867 0.050275 0.0
0.858192 0.035435 0.0
0.837263 0.018190 0.0
0.821621 0.001630 0.0
0.812296 -0.010772 0.0
0.810630 -0.018631 0.0
0.815941 -0.023107 0.0
0.827124 -0.025281 0.0
0.843140 -0.025884 0.0
0.863075 -0.025281 0.0
0.885946 -0.023560 0.0
0.910396 -0.020659 0.0
0.934388 -0.016463 0.0
0.955092 -0.010816 0.0
0.969876 -0.003436 0.0
0.977657 0.005586 0.0
0.978235 0.015772 0.0
0.971539 0.026199 0.0
0.958036 0.035514 0.0
0.938616 0.042107 0.0
0.914164 0.044556 0.0
0.885250 0.042561 0.0
0.852365 0.037447 0.0
0.816604 0.031389 0.0
0.780168 0.025846 0.0
0.746157 0.020774 0.0
0.717819 0.015286 0.0
0.697713 0.008953 0.0
0.687036 0.002480 0.0
0.684967 -0.002715 0.0
0.688964 -0.005927 0.0
0.696613 -0.007685 0.0
0.706540 -0.008559 0.0
0.717755 -0.008573 0.0
0.729196 -0.007735 0.0
0.739749 -0.006090 0.0
0.748454 -0.003757 0.0
0.755027 -0.001007 0.0
0.759866 0.001589 0.0
0.763395 0.003588 0.0
0.765844 0.004681 0.0
0.767413 0.004691 0.0
0.768204 0.003680 0.0
0.768029 0.002066 0.0
0.766632 0.000616 0.0
0.764308 -0.000137 0.0
0.761628 -0.000336 0.0
0.758830 -0.000192 0.0
0.755861 0.000178 0.0
0.752565 0.000699 0.0
0.748838 0.001269 0.0
0.744742 0.001730 0.0
0.740553 0.001880 0.0
0.736675 0.001491 0.0
0.733585 0.000491 0.0
0.731899 -0.001003 0.0
0.731943 -0.002529 0.0
0.733520 -0.003634 0.0
0.736247 -0.004081 0.0
0.739642 -0.003783 0.0
0.741894 -0.001183 0.0
1.001937 -0.003445 0.0
1.008858 -0.011835 0.0
1.021439 -0.021688 0.0
1.039122 -0.032470 0.0
1.061740 -0.043557 0.0
1.089170 -0.054150 0.0
1.121049 -0.063203 0.0
1.156531 -0.069442 0.0
1.194095 -0.071605 0.0
1.231509 -0.068797 0.0
1.266307 -0.061339 0.0
1.296561 -0.050518 0.0
1.321225 -0.037928 0.0
1.340044 -0.025011 0.0
1.353358 -0.012865 0.0
1.361861 -0.002352 0.0
1.366440 0.005995 0.0
1.368118 0.011893 0.0
1.367981 0.015260 0.0
1.367127 0.016229 0.0
1.366589 0.015173 0.0
1.367263 0.012732 0.0
1.369791 0.009845 0.0
1.374394 0.007735 0.0
1.380696 0.007764 0.0
1.387633 0.011121 0.0
1.393595 0.018417 0.0
1.396794 0.029447 0.0
1.395677 0.043345 0.0
1.389163 0.058866 0.0
1.376722 0.074666 0.0
1.358338 0.089482 0.0
1.334423 0.102234 0.0
1.305720 0.112040 0.0
1.273216 0.118206 0.0
1.238079 0.120203 0.0
1.201599 0.117663 0.0
1.165121 0.110387 0.0
1.129923 0.098366 0.0
1.096983 0.081861 0.0
1.066725 0.061781 0.0
1.039222 0.040276 0.0
1.014535 0.019873 0.0
0.992937 0.001909 0.0
0.975816 -0.012524 0.0
0.964685 -0.023393 0.0
0.959989 -0.031481 0.0
0.961785 -0.037495 0.0
0.969921 -0.041741 0.0
0.984035 -0.044085 0.0
1.003508 -0.044058 0.0
1.027452 -0.040999 0.0
1.054698 -0.034231 0.0
1.083482 -0.023589 0.0
1.111095 -0.009655 0.0
1.134861 0.006669 0.0
1.153105 0.023755 0.0
1.164864 0.039703 0.0
1.169420 0.052782 0.0
1.166132 0.061622 0.0
1.154633 0.065906 0.0
1.135227 0.066393 0.0
1.109235 0.064197 0.0
1.078836 0.059873 0.0
1.046377 0.053217 0.0
1.013578 0.043980 0.0
0.981196 0.032747 0.0
0.949592 0.020967 0.0
0.920314 0.010145 0.0
0.896693 0.000836 0.0
0.881447 -0.006852 0.0
0.874411 -0.012284 0.0
0.873700 -0.015353 0.0
0.877683 -0.016380 0.0
0.885225 -0.015541 0.0
0.895345 -0.013132 0.0
0.906942 -0.009803 0.0
0.918754 -0.006266 0.0
0.929770 -0.003102 0.0
0.939503 -0.000811 0.0
0.947812 0.000305 0.0
0.954766 0.000321 0.0
0.960664 -0.000297 0.0
0.966044 -0.001005 0.0
0.971442 -0.001589 0.0
0.977167 -0.001929 0.0
0.983307 -0.001940 0.0
0.989774 -0.001572 0.0
0.996372 -0.000853 0.0
1.002832 0.000088 0.0
1.008804 0.001035 0.0
1.013815 0.001753 0.0
1.017237 0.002075 0.0
1.018328 0.001907 0.0
1.016305 0.001289 0.0
1.010892 0.000549 0.0
1.002770 -0.000166 0.0
0.993382 -0.000888 0.0
0.984735 -0.001724 0.0
0.979618 -0.000376 0.0
1.001561 -0.006942 0.0
1.007600 -0.021296 0.0
1.019339 -0.036548 0.0
1.036675 -0.052628 0.0
1.059759 -0.069101 0.0
1.088812 -0.085089 0.0
1.123827 -0.099159 0.0
1.164134 -0.109275 0.0
1.207991 -0.113193 0.0
1.252053 -0.108684 0.0
1.292317 -0.096513 0.0
1.326041 -0.079323 0.0
1.352168 -0.059914 0.0
1.370827 -0.040503 0.0
1.382802 -0.022661 0.0
1.389189 -0.007447 0.0
1.391220 0.004479 0.0
1.390189 0.012762 0.0
1.387422 0.017294 0.0
1.384250 0.018221 0.0
1.381981 0.015987 0.0
1.381841 0.011383 0.0
1.384869 0.005639 0.0
1.391629 0.000577 0.0
1.401797 -0.001546 0.0
1.413950 0.001341 0.0
1.425847 0.010339 0.0
1.435066 0.025107 0.0
1.439682 0.044185 0.0
1.438596 0.065626 0.0
1.431487 0.087457 0.0
1.418617 0.107945 0.0
1.400599 0.125703 0.0
1.378210 0.139663 0.0
1.352275 0.149023 0.0
1.323605 0.153193 0.0
1.292979 0.151780 0.0
1.261107 0.144619 0.0
1.228591 0.131848 0.0
1.195858 0.114053 0.0
1.163203 0.092501 0.0
1.131060 0.069202 0.0
1.100324 0.046371 0.0
1.072085 0.025248 0.0
1.047183 0.006160 0.0
1.026806 -0.010569 0.0
1.012224 -0.025028 0.0
1.004036 -0.037556 0.0
1.002435 -0.048215 0.0
1.007359 -0.056649 0.0
1.018617 -0.062225 0.0
1.036062 -0.064221 0.0
1.059698 -0.061892 0.0
1.089515 -0.054528 0.0
1.124929 -0.041744 0.0
1.163908 -0.023989 0.0
1.202625 -0.002548 0.0
1.236597 0.020276 0.0
1.262802 0.041448 0.0
1.279908 0.059138 0.0
1.287255 0.072542 0.0
1.284885 0.081534 0.0
1.273660 0.086274 0.0
1.255024 0.086830 0.0
1.230558 0.083185 0.0
1.201702 0.075668 0.0
1.169891 0.065252 0.0
1.136809 0.053149 0.0
1.104028 0.040021 0.0
1.072303 0.026308 0.0
1.042096 0.013128 0.0
1.015184 0.001685 0.0
0.994089 -0.007516 0.0
0.979857 -0.013967 0.0
0.971821 -0.017460 0.0
0.968755 -0.018267 0.0
0.969388 -0.016899 0.0
0.972437 -0.014031 0.0
0.976654 -0.010570 0.0
0.980996 -0.007418 0.0
0.984838 -0.005240 0.0
0.988107 -0.004357 0.0
0.991323 -0.004733 0.0
0.995461 -0.006087 0.0
1.001652 -0.008095 0.0
1.010879 -0.010377 0.0
1.023752 -0.012505 0.0
1.040351 -0.014072 0.0
1.060169 -0.014768 0.0
1.082142 -0.014430 0.0
1.104774 -0.013050 0.0
1.126343 -0.010741 0.0
1.145199 -0.007709 0.0
1.160046 -0.004246 0.0
1.170182 -0.000673 0.0
1.175562 0.002544 0.0
1.176595 0.004927 0.0
1.174042 0.005959 0.0
1.168948 0.005168 0.0
1.164760 0.002038 0.0
1.001374 -0.009878 0.0
1.006840 -0.029866 0.0
1.017822 -0.050699 0.0
1.034648 -0.072640 0.0
1.057980 -0.095504 0.0
1.088691 -0.118450 0.0
1.127549 -0.139671 0.0
1.174510 -0.156031 0.0
1.228044 -0.163828 0.0
1.282524 -0.156590 0.0
1.330478 -0.136826 0.0
1.368076 -0.110333 0.0
1.394889 -0.081844 0.0
1.412048 -0.054391 0.0
1.421134 -0.029834 0.0
1.423796 -0.009323 0.0
1.421633 0.006487 0.0
1.416178 0.017241 0.0
1.408971 0.022788 0.0
1.401621 0.023249 0.0
1.395762 0.019087 0.0
1.393031 0.011154 0.0
1.395022 0.000849 0.0
1.402953 -0.009324 0.0
1.416901 -0.015761 0.0
1.435105 -0.014802 0.0
1.454001 -0.004312 0.0
1.469507 0.015033 0.0
1.478736 0.040414 0.0
1.480496 0.068724 0.0
1.474829 0.097134 0.0
1.462557 0.123410 0.0
1.444834 0.145979 0.0
1.422815 0.163794 0.0
1.397485 0.176157 0.0
1.369607 0.182605 0.0
1.339736 0.182865 0.0
1.308253 0.176887 0.0
1.275419 0.164930 0.0
1.241441 0.147683 0.0
1.206609 0.126358 0.0
1.171491 0.102605 0.0
1.137065 0.078130 0.0
1.104591 0.054200 0.0
1.075270 0.031431 0.0
1.049896 0.009911 0.0
1.029070 -0.010101 0.0
1.013170 -0.028395 0.0
1.002150 -0.044756 0.0
0.995940 -0.058822 0.0
0.994804 -0.070173 0.0
0.999569 -0.078483 0.0
1.011650 -0.083347 0.0
1.032655 -0.083896 0.0
1.063702 -0.078836 0.0
1.104758 -0.066932 0.0
1.154110 -0.047675 0.0
1.207613 -0.022072 0.0
1.258163 0.007041 0.0
1.298966 0.035635 0.0
1.327501 0.060163 0.0
1.344029 0.079755 0.0
1.349375 0.093931 0.0
1.344732 0.102452 0.0
1.331445 0.105316 0.0
1.310919 0.102918 0.0
1.284663 0.096068 0.0
1.254313 0.085767 0.0
1.221495 0.073002 0.0
1.187745 0.058804 0.0
1.154484 0.044099 0.0
1.122684 0.029427 0.0
1.092844 0.015677 0.0
1.065863 0.004052 0.0
1.043070 -0.004650 0.0
1.025055 -0.009996 0.0
1.011199 -0.011947 0.0
1.000204 -0.011037 0.0
0.990709 -0.008286 0.0
0.981652 -0.004986 0.0
0.972579 -0.002440 0.0
0.963827 -0.001674 0.0
0.956438 -0.003245 0.0
0.951927 -0.007203 0.0
0.951864 -0.013107 0.0
0.957454 -0.020182 0.0
0.969317 -0.027437 0.0
0.987444 -0.033867 0.0
1.011288 -0.038636 0.0
1.039909 -0.041157 0.0
1.072059 -0.041106 0.0
1.106220 -0.038417 0.0
1.140614 -0.033284 0.0
1.173249 -0.026153 0.0
1.202097 -0.017750 0.0
1.225430 -0.009091 0.0
1.242312 -0.001352 0.0
1.252872 0.004232 0.0
1.258174 0.006687 0.0
1.260623 0.002259 0.0
1.001187 -0.012438 0.0
1.005968 -0.037552 0.0
1.015795 -0.063821 0.0
1.031387 -0.091937 0.0
1.054023 -0.122175 0.0
1.085560 -0.154029 0.0
1.128207 -0.185598 0.0
1.183516 -0.212375 0.0
1.251987 -0.229490 0.0
1.322483 -0.215904 0.0
1.379304 -0.182288 0.0
1.418634 -0.141798 0.0
1.442937 -0.101495 0.0
1.455540 -0.064502 0.0
1.459141 -0.032410 0.0
1.455888 -0.006156 0.0
1.447476 0.013894 0.0
1.435440 0.027324 0.0
1.421496 0.033856 0.0
1.407497 0.033531 0.0
1.395365 0.026795 0.0
1.387020 0.014522 0.0
1.384503 -0.001994 0.0
1.390142 -0.020051 0.0
1.405391 -0.034231 0.0
1.429123 -0.038268 0.0
1.457072 -0.027691 0.0
1.482482 -0.002504 0.0
1.499449 0.031754 0.0
1.505880 0.069195 0.0
1.502417 0.105793 0.0
1.490684 0.138756 0.0
1.472551 0.166489 0.0
1.449670 0.188185 0.0
1.423302 0.203464 0.0
1.394316 0.212162 0.0
1.363253 0.214243 0.0
1.330419 0.209825 0.0
1.295995 0.199250 0.0
1.260157 0.183179 0.0
1.223225 0.162626 0.0
1.185810 0.138870 0.0
1.148869 0.113233 0.0
1.113587 0.086853 0.0
1.081058 0.060627 0.0
1.051846 0.035301 0.0
1.025621 0.011562 0.0
1.001381 -0.009918 0.0
0.978233 -0.029065 0.0
0.956288 -0.046358 0.0
0.937159 -0.062372 0.0
0.923775 -0.077666 0.0
0.919703 -0.092173 0.0
0.927976 -0.104349 0.0
0.950150 -0.111603 0.0
0.986195 -0.111266 0.0
1.034838 -0.101337 0.0
1.093793 -0.080868 0.0
1.159506 -0.050424 0.0
1.225316 -0.013513 0.0
1.281669 0.024422 0.0
1.322954 0.057682 0.0
1.349450 0.084163 0.0
1.362771 0.103541 0.0
1.364500 0.115785 0.0
1.356227 0.121249 0.0
1.339582 0.120637 0.0
1.316245 0.114886 0.0
1.287895 0.105050 0.0
1.256168 0.092233 0.0
1.222594 0.077505 0.0
1.188530 0.061886 0.0
1.155153 0.046436 0.0
1.123318 0.032110 0.0
1.093369 0.020034 0.0
1.065265 0.011439 0.0
1.038714 0.007026 0.0
1.013169 0.006531 0.0
0.988098 0.008712 0.0
0.963534 0.011637 0.0
0.940335 0.013208 0.0
0.919997 0.011769 0.0
0.904221 0.006478 0.0
0.894471 -0.002665 0.0
0.891816 -0.014926 0.0
0.896747 -0.028884 0.0
0.909029 -0.042880 0.0
0.927930 -0.055450 0.0
0.952520 -0.065487 0.0
0.981837 -0.072242 0.0
1.014924 -0.075257 0.0
1.050809 -0.074313 0.0
1.088444 -0.069416 0.0
1.126634 -0.060846 0.0
1.163985 -0.049256 0.0
1.198864 -0.035798 0.0
1.229458 -0.022121 0.0
1.254075 -0.010176 0.0
1.271725 -0.001855 0.0
1.282381 -0.002305 0.0
1.000915 -0.014540 0.0
1.004630 -0.043947 0.0
1.012437 -0.075060 0.0
1.025336 -0.109189 0.0
1.045201 -0.147424 0.0
1.075108 -0.190223 0.0
1.119562 -0.236504 0.0
1.183591 -0.280806 0.0
1.275132 -0.321070 0.0
1.368088 -0.287775 0.0
1.428535 -0.227684 0.0
1.460422 -0.167619 0.0
1.474464 -0.114018 0.0
1.477264 -0.067382 0.0
1.472117 -0.027984 0.0
1.460626 0.004163 0.0
1.443739 0.028875 0.0
1.422728 0.045389 0.0
1.399309 0.053155 0.0
1.375510 0.052031 0.0
1.353516 0.042421 0.0
1.335426 0.025332 0.0
1.323058 0.002082 0.0
1.319310 -0.026017 0.0
1.327877 -0.052081 0.0
1.350241 -0.066514 0.0
1.384168 -0.061321 0.0
1.422932 -0.033047 0.0
1.455395 0.012866 0.0
1.474114 0.062933 0.0
1.479449 0.110184 0.0
1.474183 0.151363 0.0
1.461014 0.185184 0.0
1.442015 0.211370 0.0
1.418616 0.230045 0.0
1.391746 0.241437 0.0
1.361983 0.245794 0.0
1.329694 0.243398 0.0
1.295148 0.234649 0.0
1.258630 0.220137 0.0
1.220570 0.200660 0.0
1.181643 0.177177 0.0
1.142797 0.150713 0.0
1.105099 0.122354 0.0
1.069329 0.093425 0.0
1.035383 0.065661 0.0
1.001896 0.040915 0.0
0.966646 0.020218 0.0
0.927920 0.002674 0.0
0.886565 -0.014797 0.0
0.847651 -0.035890 0.0
0.818718 -0.061831 0.0
0.805394 -0.090611 0.0
0.809283 -0.118073 0.0
0.829126 -0.139896 0.0
0.862796 -0.152688 0.0
0.908358 -0.154120 0.0
0.964141 -0.142823 0.0
1.028365 -0.118406 0.0
1.098686 -0.081662 0.0
1.170843 -0.035939 0.0
1.236034 0.011566 0.0
1.286255 0.053563 0.0
1.320308 0.086766 0.0
1.339998 0.111142 0.0
1.347104 0.127060 0.0
1.343376 0.135198 0.0
1.330559 0.136480 0.0
1.310370 0.131993 0.0
1.284474 0.122913 0.0
1.254425 0.110447 0.0
1.221618 0.095815 0.0
1.187201 0.080299 0.0
1.151981 0.065302 0.0
1.116357 0.052415 0.0
1.080390 0.043130 0.0
1.043988 0.038287 0.0
1.007262 0.037541 0.0
0.970896 0.039139 0.0
0.936304 0.040367 0.0
0.905463 0.038517 0.0
0.880484 0.031776 0.0
0.863080 0.019651 0.0
0.854169 0.002824 0.0
0.853716 -0.017307 0.0
0.860957 -0.038675 0.0
0.874812 -0.059225 0.0
0.894179 -0.077374 0.0
0.918080 -0.092056 0.0
0.945694 -0.102603 0.0
0.976332 -0.108621 0.0
1.009389 -0.109892 0.0
1.044273 -0.106355 0.0
1.080327 -0.098151 0.0
1.116748 -0.085723 0.0
1.152495 -0.069957 0.0
1.186220 -0.052281 0.0
1.216274 -0.034687 0.0
1.240829 -0.019550 0.0
1.257334 -0.011771 0.0
1.000513 -0.015967 0.0
1.002609 -0.048331 0.0
1.007152 -0.083027 0.0
1.015168 -0.122136 0.0
1.028789 -0.167964 0.0
1.052078 -0.222879 0.0
1.092361 -0.288585 0.0
1.161033 -0.361427 0.0
1.285358 -0.456315 0.0
1.400887 -0.361016 0.0
1.441301 -0.255305 0.0
1.444391 -0.174976 0.0
1.435898 -0.112210 0.0
1.423426 -0.059519 0.0
1.407691 -0.014966 0.0
1.387160 0.023166 0.0
1.360643 0.053277 0.0
1.328846 0.073795 0.0
1.293364 0.083650 0.0
1.256266 0.082433 0.0
1.219829 0.070449 0.0
1.186419 0.048804 0.0
1.158064 0.019332 0.0
1.136016 -0.017472 0.0
1.125059 -0.058236 0.0
1.132486 -0.090149 0.0
1.161721 -0.100849 0.0
1.210622 -0.081184 0.0
1.269058 -0.029896 0.0
1.318594 0.037439 0.0
1.349771 0.099166 0.0
1.366296 0.151121 0.0
1.371919 0.192974 0.0
1.369082 0.225416 0.0
1.359272 0.249207 0.0
1.343456 0.264962 0.0
1.322340 0.273148 0.0
1.296505 0.274166 0.0
1.266492 0.268441 0.0
1.232865 0.256490 0.0
1.196283 0.238948 0.0
1.157553 0.216546 0.0
1.117585 0.190159 0.0
1.077086 0.161105 0.0
1.035827 0.131702 0.0
0.991847 0.105309 0.0
0.941936 0.084665 0.0
0.884625 0.069028 0.0
0.823951 0.053264 0.0
0.769282 0.030637 0.0
0.729746 -0.002874 0.0
0.709682 -0.045850 0.0
0.708173 -0.091759 0.0
0.721297 -0.133938 0.0
0.745379 -0.167957 0.0
0.778278 -0.191195 0.0
0.819092 -0.201988 0.0
0.867515 -0.199162 0.0
0.923248 -0.182024 0.0
0.985551 -0.150668 0.0
1.052911 -0.106449 0.0
1.122477 -0.052682 0.0
1.187243 0.002824 0.0
1.239086 0.051610 0.0
1.275597 0.090097 0.0
1.298107 0.118488 0.0
1.308173 0.137431 0.0
1.307403 0.147834 0.0
1.297419 0.150811 0.0
1.279803 0.147608 0.0
1.256040 0.139563 0.0
1.227451 0.128096 0.0
1.195116 0.114770 0.0
1.159810 0.101358 0.0
1.122018 0.089775 0.0
1.082088 0.081667 0.0
1.040525 0.077716 0.0
0.998333 0.077030 0.0
0.957226 0.077122 0.0
0.919499 0.074704 0.0
0.887572 0.066948 0.0
0.863412 0.052485 0.0
0.848102 0.031657 0.0
0.841736 0.006095 0.0
0.843554 -0.021944 0.0
0.852278 -0.050004 0.0
0.866554 -0.076027 0.0
0.885203 -0.098588 0.0
0.907274 -0.116813 0.0
0.932032 -0.130218 0.0
0.958933 -0.138546 0.0
0.987576 -0.141666 0.0
1.017632 -0.139521 0.0
1.048762 -0.132170 0.0
1.080518 -0.119883 0.0
1.112251 -0.103277 0.0
1.143016 -0.083451 0.0
1.171503 -0.062057 0.0
1.196020 -0.041252 0.0
1.213571 -0.024124 0.0
0.999977 -0.016457 0.0
0.999878 -0.049838 0.0
0.999823 -0.086009 0.0
1.000410 -0.127756 0.0
1.003193 -0.178749 0.0
1.011888 -0.244079 0.0
1.035150 -0.330930 0.0
1.092198 -0.444801 0.0
1.246738 -0.651805 0.0
1.357581 -0.391899 0.0
1.322181 -0.229436 0.0
1.265423 -0.147177 0.0
1.224547 -0.090641 0.0
1.197642 -0.041711 0.0
1.174333 0.006270 0.0
1.146412 0.050382 0.0
1.112098 0.086893 0.0
1.070885 0.113189 0.0
1.023031 0.127591 0.0
0.969216 0.129405 0.0
0.910566 0.118565 0.0
0.849623 0.095041 0.0
0.791934 0.059139 0.0
0.745562 0.011142 0.0
0.719672 -0.050003 0.0
0.724096 -0.110233 0.0
0.761865 -0.147769 0.0
0.827549 -0.148849 0.0
0.914191 -0.107309 0.0
1.009970 -0.030464 0.0
1.092511 0.053352 0.0
1.151163 0.121757 0.0
1.192124 0.175755 0.0
1.219460 0.218135 0.0
1.235193 0.250565 0.0
1.240591 0.274022 0.0
1.236684 0.289112 0.0
1.224434 0.296287 0.0
1.204788 0.295979 0.0
1.178683 0.288684 0.0
1.147035 0.274984 0.0
1.110649 0.255626 0.0
1.069881 0.231815 0.0
1.023964 0.205865 0.0
0.970612 0.181552 0.0
0.907468 0.162584 0.0
0.835895 0.148875 0.0
0.763841 0.134183 0.0
0.703332 0.109291 0.0
0.663807 0.068804 0.0
0.647579 0.014722 0.0
0.650095 -0.045898 0.0
0.664343 -0.104448 0.0
0.685363 -0.155393 0.0
0.710876 -0.196097 0.0
0.740240 -0.225317 0.0
0.773752 -0.242193 0.0
0.812181 -0.245811 0.0
0.856325 -0.235252 0.0
0.906576 -0.209994 0.0
0.962587 -0.170494 0.0
1.023085 -0.118701 0.0
1.085636 -0.058474 0.0
1.144398 0.002304 0.0
1.192345 0.054946 0.0
1.226963 0.096512 0.0
1.248969 0.127336 0.0
1.259484 0.148185 0.0
1.259799 0.160129 0.0
1.251256 0.164450 0.0
1.235150 0.162590 0.0
1.212655 0.156153 0.0
1.184749 0.146954 0.0
1.152197 0.137032 0.0
1.115639 0.128451 0.0
1.075809 0.122750 0.0
1.033839 0.120167 0.0
0.991488 0.119121 0.0
0.951122 0.116504 0.0
0.915338 0.108833 0.0
0.886391 0.093692 0.0
0.865707 0.070585 0.0
0.853709 0.040865 0.0
0.849965 0.006995 0.0
0.853459 -0.028156 0.0
0.862868 -0.061925 0.0
0.876862 -0.092375 0.0
0.894264 -0.118291 0.0
0.914113 -0.139028 0.0
0.935679 -0.154327 0.0
0.958471 -0.164131 0.0
0.982204 -0.168456 0.0
1.006731 -0.167313 0.0
1.031947 -0.160723 0.0
1.057676 -0.148815 0.0
1.083557 -0.131960 0.0
1.108948 -0.110925 0.0
1.132847 -0.086969 0.0
1.153851 -0.061860 0.0
1.169482 -0.036698 0.0
0.999358 -0.015792 0.0
0.996706 -0.047752 0.0
0.991159 -0.082493 0.0
0.982375 -0.123074 0.0
0.970114 -0.173953 0.0
0.954933 -0.242388 0.0
0.940551 -0.341500 0.0
0.942575 -0.493303 0.0
1.046569 -0.861837 0.0
1.055115 -0.194233 0.0
0.879757 -0.098734 0.0
0.749969 -0.080746 0.0
0.690105 -0.056331 0.0
0.662838 -0.021848 0.0
0.645235 0.027320 0.0
0.625044 0.077445 0.0
0.595787 0.123401 0.0
0.553222 0.160459 0.0
0.496182 0.185214 0.0
0.426452 0.195328 0.0
0.350039 0.187706 0.0
0.279306 0.157576 0.0
0.230636 0.102963 0.0
0.218045 0.026282 0.0
0.244554 -0.065763 0.0
0.299495 -0.153837 0.0
0.370880 -0.213318 0.0
0.455030 -0.233133 0.0
0.552744 -0.207381 0.0
0.664481 -0.137909 0.0
0.783488 -0.040750 0.0
0.888268 0.052425 0.0
0.967268 0.125126 0.0
1.026665 0.182032 0.0
1.070339 0.227261 0.0
1.099893 0.262373 0.0
1.116479 0.288083 0.0
1.121209 0.304836 0.0
1.115213 0.313071 0.0
1.099589 0.313322 0.0
1.075265 0.306319 0.0
1.042706 0.293236 0.0
1.001443 0.276236 0.0
0.949934 0.258869 0.0
0.887011 0.244823 0.0
0.815210 0.234259 0.0
0.743170 0.220813 0.0
0.683139 0.194329 0.0
0.644444 0.148349 0.0
0.628946 0.084771 0.0
0.632204 0.011725 0.0
0.647321 -0.060535 0.0
0.668358 -0.125096 0.0
0.691800 -0.179207 0.0
0.716010 -0.222006 0.0
0.740602 -0.253364 0.0
0.766119 -0.273176 0.0
0.793800 -0.280938 0.0
0.825216 -0.275684 0.0
0.861759 -0.256356 0.0
0.904135 -0.222519 0.0
0.952050 -0.175089 0.0
1.004167 -0.116753 0.0
1.058049 -0.052062 0.0
1.108426 0.010987 0.0
1.149664 0.064615 0.0
1.179832 0.107058 0.0
1.199144 0.138637 0.0
1.208294 0.160211 0.0
1.208208 0.172998 0.0
1.199874 0.178482 0.0
1.184236 0.178394 0.0
1.162136 0.174720 0.0
1.134330 0.169624 0.0
1.101629 0.165117 0.0
1.065142 0.162401 0.0
1.026509 0.161119 0.0
0.987968 0.159060 0.0
0.952108 0.152792 0.0
0.921364 0.139073 0.0
0.897513 0.116250 0.0
0.881408 0.084817 0.0
0.873049 0.046991 0.0
0.871840 0.005821 0.0
0.876799 -0.035434 0.0
0.886715 -0.073971 0.0
0.900321 -0.107930 0.0
0.916444 -0.136262 0.0
0.934084 -0.158546 0.0
0.952483 -0.174774 0.0
0.971155 -0.185149 0.0
0.989884 -0.189901 0.0
1.008666 -0.189176 0.0
1.027604 -0.183015 0.0
1.046779 -0.171428 0.0
1.066109 -0.154558 0.0
1.085241 -0.132849 0.0
1.103473 -0.107176 0.0
1.119734 -0.078918 0.0
1.132213 -0.047751 0.0
0.998766 -0.013916 0.0
0.993667 -0.041875 0.0
0.982798 -0.071954 0.0
0.964680 -0.106712 0.0
0.936583 -0.149958 0.0
0.893502 -0.208122 0.0
0.825619 -0.293501 0.0
0.713868 -0.431576 0.0
0.321951 -0.742665 0.0
-0.483655 0.262465 0.0
-0.483655 0.000000 0.0
-0.028559 -0.019554 0.0
-0.039050 -0.056174 0.0
0.016259 -0.050048 0.0
0.093221 -0.003840 0.0
0.145430 0.076586 0.0
0.152189 0.146760 0.0
0.127611 0.204243 0.0
0.082012 0.244068 0.0
0.026827 0.261389 0.0
-0.024619 0.249503 0.0
-0.060225 0.202119 0.0
-0.071897 0.118761 0.0
-0.055490 0.006668 0.0
-0.014368 -0.113781 0.0
0.043325 -0.218452 0.0
0.111687 -0.288451 0.0
0.189621 -0.320086 0.0
0.279628 -0.308149 0.0
0.383843 -0.253093 0.0
0.502223 -0.162953 0.0
0.627908 -0.055837 0.0
0.740600 0.041696 0.0
0.828136 0.118529 0.0
0.895341 0.179886 0.0
0.945847 0.229688 0.0
0.981017 0.269011 0.0
1.001896 0.298299 0.0
1.009508 0.317992 0.0
1.004776 0.328756 0.0
0.988294 0.331691 0.0
0.960003 0.328713 0.0
0.919169 0.322856 0.0
0.865524 0.317403 0.0
0.801898 0.312838 0.0
0.736396 0.303548 0.0
0.680722 0.279239 0.0
0.644513 0.232143 0.0
0.630609 0.163134 0.0
0.635469 0.080625 0.0
0.652824 -0.004742 0.0
0.676478 -0.082840 0.0
0.701998 -0.149348 0.0
0.726907 -0.203307 0.0
0.749836 -0.245045 0.0
0.770304 -0.275384 0.0
0.788714 -0.295082 0.0
0.806349 -0.304348 0.0
0.825206 -0.302548 0.0
0.847537 -0.288367 0.0
0.875171 -0.260518 0.0
0.908912 -0.218747 0.0
0.948294 -0.164593 0.0
0.991716 -0.101526 0.0
1.036533 -0.034742 0.0
1.077933 0.027706 0.0
1.111637 0.080093 0.0
1.136347 0.121581 0.0
1.151929 0.152534 0.0
1.158743 0.173947 0.0
1.157369 0.187241 0.0
1.148457 0.194183 0.0
1.132676 0.196812 0.0
1.110759 0.197255 0.0
1.083670 0.197276 0.0
1.052810 0.197589 0.0
1.020144 0.197230 0.0
0.988078 0.193557 0.0
0.959064 0.183170 0.0
0.935107 0.163395 0.0
0.917424 0.133461 0.0
0.906429 0.094705 0.0
0.901947 0.049944 0.0
0.903427 0.002596 0.0
0.910003 -0.043745 0.0
0.920551 -0.086123 0.0
0.933856 -0.122690 0.0
0.948754 -0.152522 0.0
0.964231 -0.175403 0.0
0.979509 -0.191594 0.0
0.994105 -0.201596 0.0
1.007846 -0.205923 0.0
1.020842 -0.204931 0.0
1.033386 -0.198742 0.0
1.045811 -0.187300 0.0
1.058330 -0.170535 0.0
1.070902 -0.148575 0.0
1.083147 -0.121928 0.0
1.094339 -0.091619 0.0
1.103239 -0.056428 0.0
0.998329 -0.011012 0.0
0.991442 -0.032792 0.0
0.976747 -0.055474 0.0
0.952091 -0.080417 0.0
0.913313 -0.109377 0.0
0.852388 -0.144696 0.0
0.752468 -0.189124 0.0
0.573378 -0.245112 0.0
0.228441 -0.293972 0.0
0.000000 0.262465 0.0
-0.000000 -0.000000 0.0
0.000000 0.000000 0.0
-0.036325 -0.037121 0.0
-0.077511 -0.082427 0.0
-0.083304 -0.042631 0.0
-0.082974 0.062837 0.0
-0.089383 0.160160 0.0
-0.111252 0.237290 0.0
-0.142793 0.288161 0.0
-0.176059 0.305748 0.0
-0.201849 0.282379 0.0
-0.211587 0.214587 0.0
-0.199152 0.105530 0.0
-0.164262 -0.031397 0.0
-0.115993 -0.165107 0.0
-0.064193 -0.276620 0.0
-0.009131 -0.353706 0.0
0.051865 -0.393761 0.0
0.122002 -0.394617 0.0
0.206299 -0.355138 0.0
0.306669 -0.279658 0.0
0.420504 -0.178651 0.0
0.539877 -0.067554 0.0
0.647482 0.032637 0.0
0.732486 0.113569 0.0
0.798105 0.179880 0.0
0.847204 0.234550 0.0
0.880817 0.278268 0.0
0.899661 0.311566 0.0
0.904230 0.335344 0.0
0.894642 0.351173 0.0
0.870694 0.361471 0.0
0.832696 0.368930 0.0
0.783403 0.374267 0.0
0.729888 0.373114 0.0
0.682756 0.355905 0.0
0.651731 0.313581 0.0
0.640961 0.244779 0.0
0.648406 0.156957 0.0
0.668939 0.061409 0.0
0.696681 -0.030623 0.0
0.726578 -0.110510 0.0
0.755484 -0.176104 0.0
0.781510 -0.227485 0.0
0.803458 -0.265744 0.0
0.820750 -0.292445 0.0
0.833507 -0.309188 0.0
0.842724 -0.317093 0.0
0.850351 -0.316287 0.0
0.859091 -0.305697 0.0
0.871761 -0.283492 0.0
0.890441 -0.248194 0.0
0.915813 -0.199900 0.0
0.947066 -0.140896 0.0
0.982266 -0.075388 0.0
1.018365 -0.009147 0.0
1.051234 0.050373 0.0
1.077838 0.099987 0.0
1.097142 0.139242 0.0
1.108862 0.168705 0.0
1.113112 0.189607 0.0
1.110213 0.203627 0.0
1.100644 0.212719 0.0
1.085103 0.218805 0.0
1.064664 0.223254 0.0
1.040910 0.226224 0.0
1.015919 0.226251 0.0
0.991994 0.220527 0.0
0.971217 0.205990 0.0
0.955051 0.180698 0.0
0.944209 0.144684 0.0
0.938801 0.099885 0.0
0.938592 0.049455 0.0
0.943137 -0.002941 0.0
0.951630 -0.053277 0.0
0.962958 -0.098466 0.0
0.975960 -0.136654 0.0
0.989523 -0.167020 0.0
1.002682 -0.189542 0.0
1.014696 -0.204748 0.0
1.025112 -0.213455 0.0
1.033810 -0.216504 0.0
1.040990 -0.214526 0.0
1.047105 -0.207806 0.0
1.052726 -0.196282 0.0
1.058363 -0.179709 0.0
1.064307 -0.157916 0.0
1.070519 -0.131045 0.0
1.076620 -0.099795 0.0
1.081832 -0.062363 0.0
0.998132 -0.007474 0.0
0.990473 -0.021783 0.0
0.974276 -0.035592 0.0
0.947505 -0.048871 0.0
0.906488 -0.061129 0.0
0.845220 -0.070751 0.0
0.754444 -0.072373 0.0
0.622968 -0.051297 0.0
0.452668 0.032776 0.0
0.179843 0.161432 0.0
0.000000 0.000000 0.0
-0.000000 -0.000000 0.0
0.000000 0.000000 0.0
-0.037673 -0.038782 0.0
-0.089312 -0.027736 0.0
-0.121097 0.079396 0.0
-0.152008 0.180920 0.0
-0.175937 0.262327 0.0
-0.196180 0.314908 0.0
-0.211656 0.327744 0.0
-0.216493 0.291008 0.0
-0.202985 0.202188 0.0
-0.165168 0.067679 0.0
-0.111385 -0.082220 0.0
-0.057785 -0.216153 0.0
-0.012613 -0.322546 0.0
0.023562 -0.399017 0.0
0.056475 -0.442360 0.0
0.093557 -0.453236 0.0
0.142540 -0.429799 0.0
0.209396 -0.372223 0.0
0.295000 -0.285523 0.0
0.394507 -0.179562 0.0
0.498786 -0.067238 0.0
0.592900 0.034326 0.0
0.667948 0.118457 0.0
0.725715 0.189107 0.0
0.767739 0.248075 0.0
0.794462 0.296192 0.0
0.805981 0.334630 0.0
0.802302 0.365154 0.0
0.783987 0.389754 0.0
0.753494 0.409138 0.0
0.716642 0.420204 0.0
0.682457 0.414877 0.0
0.660142 0.383590 0.0
0.654879 0.322184 0.0
0.666292 0.235533 0.0
0.690543 0.134508 0.0
0.723079 0.030789 0.0
0.758731 -0.063398 0.0
0.793173 -0.142074 0.0
0.824190 -0.204463 0.0
0.850375 -0.251335 0.0
0.870832 -0.284300 0.0
0.885089 -0.305437 0.0
0.893125 -0.316990 0.0
0.895556 -0.320939 0.0
0.893897 -0.318410 0.0
0.890703 -0.309119 0.0
0.889272 -0.291308 0.0
0.892803 -0.262589 0.0
0.903380 -0.221454 0.0
0.921354 -0.168569 0.0
0.945464 -0.107023 0.0
0.973417 -0.041564 0.0
1.001814 0.021524 0.0
1.027246 0.076800 0.0
1.047738 0.122634 0.0
1.062357 0.158974 0.0
1.070742 0.186704 0.0