# vtk DataFile Version 3.0
Vector Field
ASCII
DATASET RECTILINEAR_GRID
DIMENSIONS 100 26 1
X_COORDINATES 100 double
0.050000 0.150000 0.250000 0.350000 0.450000 0.550000 0.650000 0.750000 0.850000 0.950000 1.050000 1.150000 1.250000 1.350000 1.450000 1.550000 1.650000 1.750000 1.850000 1.950000 2.050000 2.150000 2.250000 2.350000 2.450000 2.550000 2.650000 2.750000 2.850000 2.950000 3.050000 3.150000 3.250000 3.350000 3.450000 3.550000 3.650000 3.750000 3.850000 3.950000 4.050000 4.150000 4.250000 4.350000 4.450000 4.550000 4.650000 4.750000 4.850000 4.950000 5.050000 5.150000 5.250000 5.350000 5.450000 5.550000 5.650000 5.750000 5.850000 5.950000 6.050000 6.150000 6.250000 6.350000 6.450000 6.550000 6.650000 6.750000 6.850000 6.950000 7.050000 7.150000 7.250000 7.350000 7.450000 7.550000 7.650000 7.750000 7.850000 7.950000 8.050000 8.150000 8.250000 8.350000 8.450000 8.550000 8.650000 8.750000 8.850000 8.950000 9.050000 9.150000 9.250000 9.350000 9.450000 9.550000 9.650000 9.750000 9.850000 9.950000 
Y_COORDINATES 26 double
0.050000 0.150000 0.250000 0.350000 0.450000 0.550000 0.650000 0.750000 0.850000 0.950000 1.050000 1.150000 1.250000 1.350000 1.450000 1.550000 1.650000 1.750000 1.850000 1.950000 2.050000 2.150000 2.250000 2.350000 2.450000 2.550000 
Z_COORDINATES 1 double
0.0
POINT_DATA 2600
VECTORS Vektorfeld double
1.000771 -0.000771 0.0
1.004296 -0.002754 0.0
1.011930 -0.004880 0.0
1.023848 -0.007038 0.0
1.040030 -0.009144 0.0
1.060263 -0.011090 0.0
1.084088 -0.012735 0.0
1.110739 -0.013916 0.0
1.139139 -0.014485 0.0
1.167990 -0.014366 0.0
1.195965 -0.013610 0.0
1.221958 -0.012383 0.0
1.245245 -0.010904 0.0
1.265534 -0.009385 0.0
1.282908 -0.007989 0.0
1.297707 -0.006810 0.0
1.310388 -0.005870 0.0
1.321370 -0.005112 0.0
1.330898 -0.004415 0.0
1.338926 -0.003613 0.0
1.345071 -0.002532 0.0
1.348662 -0.001059 0.0
1.348876 0.000844 0.0
1.344894 0.003138 0.0
1.336066 0.005690 0.0
1.322047 0.008328 0.0
1.302843 0.010876 0.0
1.278786 0.013182 0.0
1.250470 0.015134 0.0
1.218671 0.016664 0.0
1.184266 0.017741 0.0
1.148167 0.018359 0.0
1.111274 0.018534 0.0
1.074454 0.018286 0.0
1.038527 0.017641 0.0
1.004259 0.016627 0.0
0.972350 0.015282 0.0
0.943398 0.013670 0.0
0.917852 0.011877 0.0
0.895964 0.010011 0.0
0.877775 0.008179 0.0
0.863128 0.006469 0.0
0.851723 0.004936 0.0
0.843186 0.003601 0.0
0.837131 0.002454 0.0
0.833217 0.001461 0.0
0.831172 0.000583 0.0
0.830785 -0.000197 0.0
0.831838 -0.000856 0.0
0.834096 -0.001401 0.0
0.837341 -0.001843 0.0
0.841377 -0.002192 0.0
0.846026 -0.002457 0.0
0.851126 -0.002644 0.0
0.856530 -0.002760 0.0
0.862103 -0.002812 0.0
0.867723 -0.002808 0.0
0.873288 -0.002756 0.0
0.878710 -0.002665 0.0
0.883918 -0.002543 0.0
0.888861 -0.002399 0.0
0.893501 -0.002241 0.0
0.897816 -0.002074 0.0
0.901795 -0.001905 0.0
0.905438 -0.001738 0.0
0.908752 -0.001576 0.0
0.911751 -0.001423 0.0
0.914452 -0.001279 0.0
0.916875 -0.001145 0.0
0.919043 -0.001022 0.0
0.920975 -0.000910 0.0
0.922695 -0.000809 0.0
0.924222 -0.000718 0.0
0.925577 -0.000636 0.0
0.926776 -0.000563 0.0
0.927837 -0.000498 0.0
0.928775 -0.000440 0.0
0.929604 -0.000389 0.0
0.930336 -0.000343 0.0
0.930982 -0.000303 0.0
0.931551 -0.000267 0.0
0.932054 -0.000235 0.0
0.932497 -0.000208 0.0
0.932888 -0.000183 0.0
0.933232 -0.000161 0.0
0.933535 -0.000142 0.0
0.933803 -0.000125 0.0
0.934040 -0.000111 0.0
0.934248 -0.000098 0.0
0.934434 -0.000087 0.0
0.934599 -0.000078 0.0
0.934747 -0.000070 0.0
0.934881 -0.000065 0.0
0.935007 -0.000061 0.0
0.935128 -0.000060 0.0
0.935253 -0.000064 0.0
0.935393 -0.000076 0.0
0.935574 -0.000105 0.0
0.935864 -0.000185 0.0
0.936324 -0.000275 0.0
1.001319 -0.002861 0.0
1.006245 -0.009114 0.0
1.015686 -0.015595 0.0
1.029577 -0.022133 0.0
1.047873 -0.028526 0.0
1.070403 -0.034471 0.0
1.096759 -0.039535 0.0
1.126185 -0.043193 0.0
1.157527 -0.044951 0.0
1.189306 -0.044528 0.0
1.219974 -0.042091 0.0
1.248275 -0.038195 0.0
1.273454 -0.033558 0.0
1.295282 -0.028849 0.0
1.313961 -0.024577 0.0
1.329972 -0.021032 0.0
1.343917 -0.018274 0.0
1.356358 -0.016133 0.0
1.367660 -0.014224 0.0
1.377845 -0.012017 0.0
1.386522 -0.008950 0.0
1.392896 -0.004606 0.0
1.395918 0.001155 0.0
1.394556 0.008172 0.0
1.388040 0.016001 0.0
1.375990 0.024086 0.0
1.358441 0.031871 0.0
1.335793 0.038891 0.0
1.308726 0.044808 0.0
1.278095 0.049420 0.0
1.244845 0.052640 0.0
1.209935 0.054468 0.0
1.174298 0.054955 0.0
1.138804 0.054178 0.0
1.104255 0.052226 0.0
1.071371 0.049195 0.0
1.040776 0.045217 0.0
1.012985 0.040478 0.0
0.988366 0.035233 0.0
0.967123 0.029785 0.0
0.949278 0.024439 0.0
0.934687 0.019446 0.0
0.923087 0.014964 0.0
0.914145 0.011053 0.0
0.907514 0.007687 0.0
0.902865 0.004791 0.0
0.899889 0.002274 0.0
0.898314 0.000074 0.0
0.897960 -0.001827 0.0
0.898723 -0.003452 0.0
0.900508 -0.004823 0.0
0.903215 -0.005955 0.0
0.906727 -0.006856 0.0
0.910915 -0.007534 0.0
0.915640 -0.007999 0.0
0.920759 -0.008265 0.0
0.926135 -0.008352 0.0
0.931639 -0.008281 0.0
0.937155 -0.008079 0.0
0.942587 -0.007771 0.0
0.947856 -0.007383 0.0
0.952899 -0.006941 0.0
0.957674 -0.006464 0.0
0.962150 -0.005971 0.0
0.966312 -0.005476 0.0
0.970153 -0.004993 0.0
0.973676 -0.004528 0.0
0.976890 -0.004088 0.0
0.979809 -0.003677 0.0
0.982449 -0.003297 0.0
0.984828 -0.002948 0.0
0.986966 -0.002630 0.0
0.988882 -0.002341 0.0
0.990596 -0.002081 0.0
0.992127 -0.001848 0.0
0.993491 -0.001639 0.0
0.994705 -0.001452 0.0
0.995784 -0.001285 0.0
0.996743 -0.001137 0.0
0.997593 -0.001005 0.0
0.998348 -0.000888 0.0
0.999016 -0.000785 0.0
0.999607 -0.000693 0.0
1.000131 -0.000612 0.0
1.000594 -0.000540 0.0
1.001004 -0.000477 0.0
1.001366 -0.000421 0.0
1.001686 -0.000372 0.0
1.001970 -0.000329 0.0
1.002220 -0.000292 0.0
1.002443 -0.000260 0.0
1.002642 -0.000234 0.0
1.002820 -0.000213 0.0
1.002981 -0.000199 0.0
1.003130 -0.000192 0.0
1.003271 -0.000197 0.0
1.003407 -0.000220 0.0
1.003539 -0.000275 0.0
1.003637 -0.000404 0.0
1.003676 -0.000555 0.0
1.001206 -0.005386 0.0
1.005948 -0.016256 0.0
1.015347 -0.027293 0.0
1.029450 -0.038429 0.0
1.048352 -0.049427 0.0
1.072064 -0.059812 0.0
1.100336 -0.068822 0.0
1.132458 -0.075453 0.0
1.167104 -0.078679 0.0
1.202307 -0.077781 0.0
1.235900 -0.073099 0.0
1.266226 -0.065814 0.0
1.292455 -0.057347 0.0
1.314511 -0.048945 0.0
1.332862 -0.041510 0.0
1.348296 -0.035544 0.0
1.361731 -0.031142 0.0
1.374022 -0.027997 0.0
1.385770 -0.025408 0.0
1.397112 -0.022361 0.0
1.407569 -0.017740 0.0
1.416054 -0.010675 0.0
1.421146 -0.000891 0.0
1.421502 0.011224 0.0
1.416161 0.024805 0.0
1.404693 0.038799 0.0
1.387206 0.052194 0.0
1.364250 0.064172 0.0
1.336673 0.074171 0.0
1.305480 0.081880 0.0
1.271724 0.087187 0.0
1.236426 0.090129 0.0
1.200532 0.090826 0.0
1.164887 0.089446 0.0
1.130225 0.086169 0.0
1.097172 0.081190 0.0
1.066248 0.074741 0.0
1.037868 0.067126 0.0
1.012336 0.058735 0.0
0.989836 0.050027 0.0
0.970415 0.041464 0.0
0.953990 0.033435 0.0
0.940370 0.026195 0.0
0.929291 0.019842 0.0
0.920475 0.014345 0.0
0.913661 0.009597 0.0
0.908636 0.005469 0.0
0.905243 0.001847 0.0
0.903359 -0.001362 0.0
0.902880 -0.004200 0.0
0.903699 -0.006679 0.0
0.905689 -0.008795 0.0
0.908699 -0.010538 0.0
0.912562 -0.011902 0.0
0.917099 -0.012892 0.0
0.922129 -0.013523 0.0
0.927483 -0.013824 0.0
0.933004 -0.013834 0.0
0.938560 -0.013597 0.0
0.944037 -0.013161 0.0
0.949347 -0.012572 0.0
0.954425 -0.011873 0.0
0.959224 -0.011104 0.0
0.963714 -0.010296 0.0
0.967879 -0.009478 0.0
0.971715 -0.008669 0.0
0.975227 -0.007887 0.0
0.978426 -0.007142 0.0
0.981326 -0.006442 0.0
0.983945 -0.005791 0.0
0.986302 -0.005191 0.0
0.988419 -0.004641 0.0
0.990315 -0.004142 0.0
0.992009 -0.003690 0.0
0.993521 -0.003282 0.0
0.994868 -0.002916 0.0
0.996067 -0.002587 0.0
0.997132 -0.002294 0.0
0.998078 -0.002033 0.0
0.998918 -0.001800 0.0
0.999662 -0.001592 0.0
1.000321 -0.001408 0.0
1.000905 -0.001245 0.0
1.001421 -0.001100 0.0
1.001878 -0.000972 0.0
1.002282 -0.000858 0.0
1.002639 -0.000758 0.0
1.002955 -0.000670 0.0
1.003234 -0.000593 0.0
1.003480 -0.000526 0.0
1.003699 -0.000468 0.0
1.003893 -0.000419 0.0
1.004065 -0.000379 0.0
1.004220 -0.000349 0.0
1.004358 -0.000330 0.0
1.004484 -0.000325 0.0
1.004596 -0.000339 0.0
1.004689 -0.000380 0.0
1.004750 -0.000457 0.0
1.004764 -0.000554 0.0
1.001155 -0.007748 0.0
1.005769 -0.023251 0.0
1.015074 -0.039002 0.0
1.029319 -0.055069 0.0
1.048880 -0.071250 0.0
1.074120 -0.086940 0.0
1.105154 -0.101001 0.0
1.141474 -0.111717 0.0
1.181587 -0.117175 0.0
1.222551 -0.115453 0.0
1.260835 -0.107305 0.0
1.294058 -0.095158 0.0
1.321392 -0.081566 0.0
1.343146 -0.068536 0.0
1.360284 -0.057408 0.0
1.374100 -0.048897 0.0
1.386008 -0.043131 0.0
1.397353 -0.039645 0.0
1.409184 -0.037340 0.0
1.421934 -0.034522 0.0
1.435086 -0.029189 0.0
1.447061 -0.019686 0.0
1.455579 -0.005489 0.0
1.458496 0.012550 0.0
1.454443 0.032874 0.0
1.442921 0.053720 0.0
1.424216 0.073466 0.0
1.399192 0.090881 0.0
1.369036 0.105194 0.0
1.335054 0.116031 0.0
1.298523 0.123323 0.0
1.260614 0.127200 0.0
1.222351 0.127911 0.0
1.184602 0.125755 0.0
1.148077 0.121045 0.0
1.113346 0.114097 0.0
1.080853 0.105251 0.0
1.050939 0.094910 0.0
1.023855 0.083567 0.0
0.999755 0.071795 0.0
0.978692 0.060179 0.0
0.960609 0.049227 0.0
0.945357 0.039277 0.0
0.932723 0.030472 0.0
0.922479 0.022776 0.0
0.914416 0.016044 0.0
0.908366 0.010097 0.0
0.904199 0.004780 0.0
0.901800 -0.000013 0.0
0.901049 -0.004320 0.0
0.901807 -0.008135 0.0
0.903906 -0.011427 0.0
0.907152 -0.014162 0.0
0.911332 -0.016321 0.0
0.916226 -0.017904 0.0
0.921621 -0.018936 0.0
0.927321 -0.019464 0.0
0.933153 -0.019547 0.0
0.938970 -0.019257 0.0
0.944656 -0.018666 0.0
0.950125 -0.017847 0.0
0.955312 -0.016864 0.0
0.960178 -0.015777 0.0
0.964698 -0.014633 0.0
0.968865 -0.013473 0.0
0.972681 -0.012326 0.0
0.976156 -0.011217 0.0
0.979306 -0.010160 0.0
0.982151 -0.009167 0.0
0.984710 -0.008244 0.0
0.987007 -0.007392 0.0
0.989064 -0.006613 0.0
0.990902 -0.005904 0.0
0.992541 -0.005262 0.0
0.994002 -0.004682 0.0
0.995301 -0.004162 0.0
0.996456 -0.003695 0.0
0.997482 -0.003278 0.0
0.998392 -0.002905 0.0
0.999198 -0.002573 0.0
0.999913 -0.002278 0.0
1.000546 -0.002015 0.0
1.001106 -0.001782 0.0
1.001601 -0.001575 0.0
1.002039 -0.001392 0.0
1.002426 -0.001230 0.0
1.002768 -0.001086 0.0
1.003070 -0.000960 0.0
1.003336 -0.000849 0.0
1.003571 -0.000752 0.0
1.003779 -0.000668 0.0
1.003962 -0.000596 0.0
1.004124 -0.000536 0.0
1.004266 -0.000489 0.0
1.004392 -0.000454 0.0
1.004500 -0.000435 0.0
1.004592 -0.000433 0.0
1.004662 -0.000451 0.0
1.004703 -0.000489 0.0
1.004709 -0.000542 0.0
1.001084 -0.009987 0.0
1.005450 -0.029990 0.0
1.014386 -0.050502 0.0
1.028399 -0.071827 0.0
1.048280 -0.093934 0.0
1.074994 -0.116210 0.0
1.109388 -0.137160 0.0
1.151543 -0.154032 0.0
1.200191 -0.163621 0.0
1.250346 -0.160126 0.0
1.295299 -0.145868 0.0
1.331624 -0.126141 0.0
1.359020 -0.105313 0.0
1.378720 -0.086242 0.0
1.392524 -0.070642 0.0
1.402428 -0.059382 0.0
1.410480 -0.052607 0.0
1.418700 -0.049733 0.0
1.428880 -0.049262 0.0
1.442140 -0.048609 0.0
1.458253 -0.044368 0.0
1.475167 -0.033396 0.0
1.489251 -0.014380 0.0
1.496744 0.011031 0.0
1.495357 0.039833 0.0
1.484498 0.069142 0.0
1.464758 0.096488 0.0
1.437477 0.120164 0.0
1.404316 0.139227 0.0
1.366961 0.153336 0.0
1.326959 0.162551 0.0
1.285661 0.167180 0.0
1.244200 0.167656 0.0
1.203501 0.164460 0.0
1.164293 0.158073 0.0
1.127137 0.148958 0.0
1.092445 0.137576 0.0
1.060516 0.124427 0.0
1.031555 0.110095 0.0
1.005679 0.095243 0.0
0.982916 0.080557 0.0
0.963206 0.066641 0.0
0.946416 0.053906 0.0
0.932367 0.042526 0.0
0.920877 0.032457 0.0
0.911784 0.023518 0.0
0.904962 0.015495 0.0
0.900302 0.008210 0.0
0.897692 0.001566 0.0
0.896993 -0.004450 0.0
0.898026 -0.009797 0.0
0.900571 -0.014410 0.0
0.904378 -0.018232 0.0
0.909180 -0.021232 0.0
0.914709 -0.023415 0.0
0.920712 -0.024823 0.0
0.926962 -0.025528 0.0
0.933270 -0.025621 0.0
0.939479 -0.025209 0.0
0.945473 -0.024395 0.0
0.951167 -0.023281 0.0
0.956509 -0.021959 0.0
0.961466 -0.020505 0.0
0.966027 -0.018987 0.0
0.970195 -0.017454 0.0
0.973980 -0.015947 0.0
0.977402 -0.014494 0.0
0.980484 -0.013115 0.0
0.983251 -0.011824 0.0
0.985729 -0.010625 0.0
0.987943 -0.009522 0.0
0.989918 -0.008515 0.0
0.991677 -0.007599 0.0
0.993242 -0.006771 0.0
0.994633 -0.006024 0.0
0.995867 -0.005354 0.0
0.996963 -0.004753 0.0
0.997935 -0.004216 0.0
0.998796 -0.003737 0.0
0.999558 -0.003310 0.0
1.000233 -0.002930 0.0
1.000830 -0.002592 0.0
1.001358 -0.002293 0.0
1.001825 -0.002026 0.0
1.002237 -0.001791 0.0
1.002602 -0.001582 0.0
1.002923 -0.001397 0.0
1.003206 -0.001234 0.0
1.003456 -0.001091 0.0
1.003676 -0.000965 0.0
1.003869 -0.000856 0.0
1.004039 -0.000761 0.0
1.004187 -0.000681 0.0
1.004316 -0.000615 0.0
1.004427 -0.000564 0.0
1.004520 -0.000527 0.0
1.004594 -0.000506 0.0
1.004648 -0.000501 0.0
1.004676 -0.000509 0.0
1.004676 -0.000527 0.0
1.000947 -0.012018 0.0
1.004783 -0.036161 0.0
1.012773 -0.061257 0.0
1.025702 -0.088015 0.0
1.044890 -0.116815 0.0
1.072194 -0.147347 0.0
1.109805 -0.178028 0.0
1.159259 -0.204772 0.0
1.221234 -0.223504 0.0
1.285724 -0.214888 0.0
1.338291 -0.188627 0.0
1.375319 -0.156735 0.0
1.398993 -0.125790 0.0
1.412523 -0.098995 0.0
1.418857 -0.078027 0.0
1.420673 -0.063717 0.0
1.420547 -0.056200 0.0
1.421136 -0.054950 0.0
1.425237 -0.058327 0.0
1.435291 -0.062858 0.0
1.452187 -0.063127 0.0
1.474088 -0.053453 0.0
1.496098 -0.030418 0.0
1.511542 0.004133 0.0
1.515821 0.043839 0.0
1.508046 0.083769 0.0
1.489347 0.120300 0.0
1.461753 0.151228 0.0
1.427492 0.175585 0.0
1.388613 0.193213 0.0
1.346866 0.204422 0.0
1.303707 0.209767 0.0
1.260328 0.209909 0.0
1.217697 0.205537 0.0
1.176579 0.197320 0.0
1.137563 0.185883 0.0
1.101082 0.171823 0.0
1.067437 0.155753 0.0
1.036821 0.138347 0.0
1.009329 0.120359 0.0
0.984971 0.102562 0.0
0.963683 0.085634 0.0
0.945351 0.070035 0.0
0.929847 0.055949 0.0
0.917059 0.043312 0.0
0.906903 0.031912 0.0
0.899315 0.021511 0.0
0.894228 0.011940 0.0
0.891539 0.003135 0.0
0.891084 -0.004865 0.0
0.892632 -0.011963 0.0
0.895897 -0.018054 0.0
0.900554 -0.023053 0.0
0.906263 -0.026923 0.0
0.912692 -0.029683 0.0
0.919538 -0.031404 0.0
0.926537 -0.032197 0.0
0.933478 -0.032200 0.0
0.940200 -0.031560 0.0
0.946586 -0.030423 0.0
0.952562 -0.028925 0.0
0.958089 -0.027183 0.0
0.963150 -0.025299 0.0
0.967750 -0.023354 0.0
0.971905 -0.021409 0.0
0.975641 -0.019513 0.0
0.978988 -0.017697 0.0
0.981977 -0.015984 0.0
0.984641 -0.014386 0.0
0.987011 -0.012910 0.0
0.989118 -0.011557 0.0
0.990987 -0.010325 0.0
0.992646 -0.009207 0.0
0.994116 -0.008198 0.0
0.995419 -0.007291 0.0
0.996573 -0.006476 0.0
0.997594 -0.005748 0.0
0.998498 -0.005097 0.0
0.999298 -0.004517 0.0
1.000005 -0.004000 0.0
1.000631 -0.003541 0.0
1.001183 -0.003132 0.0
1.001672 -0.002769 0.0
1.002103 -0.002448 0.0
1.002484 -0.002163 0.0
1.002820 -0.001910 0.0
1.003116 -0.001686 0.0
1.003376 -0.001489 0.0
1.003606 -0.001315 0.0
1.003807 -0.001162 0.0
1.003983 -0.001028 0.0
1.004136 -0.000912 0.0
1.004270 -0.000812 0.0
1.004384 -0.000728 0.0
1.004480 -0.000659 0.0
1.004558 -0.000604 0.0
1.004618 -0.000564 0.0
1.004659 -0.000536 0.0
1.004677 -0.000520 0.0
1.004672 -0.000510 0.0
1.000703 -0.013668 0.0
1.003571 -0.041216 0.0
1.009690 -0.070311 0.0
1.020058 -0.102259 0.0
1.036511 -0.138211 0.0
1.062020 -0.178764 0.0
1.100922 -0.223124 0.0
1.157920 -0.266128 0.0
1.240920 -0.307124 0.0
1.326012 -0.280849 0.0
1.381207 -0.230427 0.0
1.409745 -0.180501 0.0
1.421136 -0.137090 0.0
1.421494 -0.101584 0.0
1.414464 -0.074742 0.0
1.402741 -0.057095 0.0
1.388702 -0.048656 0.0
1.374962 -0.049343 0.0
1.365147 -0.058219 0.0
1.363747 -0.071621 0.0
1.374122 -0.081634 0.0
1.396383 -0.079108 0.0
1.426267 -0.056657 0.0
1.454322 -0.013128 0.0
1.470573 0.040569 0.0
1.471761 0.093627 0.0
1.459966 0.140936 0.0
1.438144 0.180009 0.0
1.409017 0.210193 0.0
1.374755 0.231746 0.0
1.337056 0.245334 0.0
1.297289 0.251782 0.0
1.256593 0.251968 0.0
1.215938 0.246764 0.0
1.176143 0.237006 0.0
1.137878 0.223478 0.0
1.101671 0.206918 0.0
1.067909 0.188066 0.0
1.036848 0.167711 0.0
1.008628 0.146707 0.0
0.983293 0.125908 0.0
0.960822 0.106048 0.0
0.941172 0.087603 0.0
0.924321 0.070737 0.0
0.910283 0.055350 0.0
0.899107 0.041206 0.0
0.890836 0.028075 0.0
0.885466 0.015832 0.0
0.882910 0.004489 0.0
0.882972 -0.005826 0.0
0.885362 -0.014939 0.0
0.889707 -0.022687 0.0
0.895586 -0.028955 0.0
0.902561 -0.033705 0.0
0.910216 -0.036985 0.0
0.918181 -0.038913 0.0
0.926153 -0.039659 0.0
0.933897 -0.039424 0.0
0.941250 -0.038410 0.0
0.948105 -0.036814 0.0
0.954405 -0.034811 0.0
0.960133 -0.032551 0.0
0.965295 -0.030155 0.0
0.969917 -0.027720 0.0
0.974035 -0.025317 0.0
0.977692 -0.022998 0.0
0.980931 -0.020797 0.0
0.983795 -0.018737 0.0
0.986325 -0.016827 0.0
0.988558 -0.015073 0.0
0.990529 -0.013472 0.0
0.992268 -0.012019 0.0
0.993803 -0.010706 0.0
0.995158 -0.009524 0.0
0.996354 -0.008463 0.0
0.997410 -0.007513 0.0
0.998342 -0.006665 0.0
0.999166 -0.005908 0.0
0.999893 -0.005233 0.0
1.000534 -0.004633 0.0
1.001101 -0.004100 0.0
1.001601 -0.003626 0.0
1.002043 -0.003205 0.0
1.002432 -0.002832 0.0
1.002775 -0.002502 0.0
1.003078 -0.002209 0.0
1.003344 -0.001950 0.0
1.003578 -0.001720 0.0
1.003783 -0.001518 0.0
1.003963 -0.001340 0.0
1.004119 -0.001183 0.0
1.004255 -0.001046 0.0
1.004371 -0.000927 0.0
1.004469 -0.000825 0.0
1.004551 -0.000739 0.0
1.004615 -0.000667 0.0
1.004662 -0.000608 0.0
1.004691 -0.000561 0.0
1.004701 -0.000524 0.0
1.004691 -0.000491 0.0
1.000327 -0.014698 0.0
1.001673 -0.044401 0.0
1.004702 -0.076274 0.0
1.010400 -0.112362 0.0
1.020808 -0.154970 0.0
1.039798 -0.206505 0.0
1.074360 -0.268846 0.0
1.135080 -0.338123 0.0
1.249017 -0.432067 0.0
1.355767 -0.347749 0.0
1.391374 -0.254329 0.0
1.390865 -0.184628 0.0
1.377212 -0.130700 0.0
1.356998 -0.088119 0.0
1.331995 -0.056173 0.0
1.303328 -0.035275 0.0
1.271672 -0.024782 0.0
1.237606 -0.025412 0.0
1.204036 -0.038765 0.0
1.178122 -0.063761 0.0
1.168027 -0.089773 0.0
1.178711 -0.103914 0.0
1.210192 -0.093217 0.0
1.254589 -0.049020 0.0
1.294302 0.020497 0.0
1.317340 0.089475 0.0
1.325349 0.148873 0.0
1.322414 0.196828 0.0
1.311310 0.233604 0.0
1.293811 0.260096 0.0
1.271186 0.277307 0.0
1.244529 0.286232 0.0
1.214892 0.287850 0.0
1.183299 0.283129 0.0
1.150719 0.273017 0.0
1.118027 0.258424 0.0
1.085969 0.240235 0.0
1.055144 0.219336 0.0
1.025991 0.196655 0.0
0.998804 0.173169 0.0
0.973766 0.149818 0.0
0.951008 0.127367 0.0
0.930667 0.106274 0.0
0.912929 0.086654 0.0
0.898033 0.068366 0.0
0.886224 0.051176 0.0
0.877689 0.034912 0.0
0.872501 0.019553 0.0
0.870583 0.005242 0.0
0.871710 -0.007769 0.0
0.875522 -0.019198 0.0
0.881543 -0.028794 0.0
0.889218 -0.036402 0.0
0.897979 -0.041995 0.0
0.907301 -0.045671 0.0
0.916738 -0.047628 0.0
0.925946 -0.048123 0.0
0.934679 -0.047437 0.0
0.942780 -0.045850 0.0
0.950168 -0.043617 0.0
0.956817 -0.040958 0.0
0.962740 -0.038055 0.0
0.967979 -0.035051 0.0
0.972587 -0.032054 0.0
0.976627 -0.029141 0.0
0.980161 -0.026364 0.0
0.983249 -0.023757 0.0
0.985947 -0.021338 0.0
0.988305 -0.019113 0.0
0.990367 -0.017082 0.0
0.992172 -0.015239 0.0
0.993753 -0.013573 0.0
0.995141 -0.012074 0.0
0.996359 -0.010729 0.0
0.997430 -0.009525 0.0
0.998371 -0.008449 0.0
0.999200 -0.007490 0.0
0.999929 -0.006635 0.0
1.000572 -0.005875 0.0
1.001139 -0.005199 0.0
1.001638 -0.004599 0.0
1.002078 -0.004067 0.0
1.002465 -0.003594 0.0
1.002807 -0.003175 0.0
1.003108 -0.002803 0.0
1.003372 -0.002474 0.0
1.003604 -0.002183 0.0
1.003808 -0.001925 0.0
1.003986 -0.001697 0.0
1.004142 -0.001495 0.0
1.004276 -0.001318 0.0
1.004392 -0.001162 0.0
1.004490 -0.001026 0.0
1.004572 -0.000907 0.0
1.004638 -0.000804 0.0
1.004689 -0.000716 0.0
1.004724 -0.000641 0.0
1.004743 -0.000576 0.0
1.004745 -0.000521 0.0
1.004730 -0.000468 0.0
0.999823 -0.014847 0.0
0.999102 -0.044878 0.0
0.997786 -0.077510 0.0
0.996425 -0.115463 0.0
0.996475 -0.162327 0.0
1.001436 -0.223099 0.0
1.019549 -0.304927 0.0
1.068881 -0.412095 0.0
1.213037 -0.616190 0.0
1.317120 -0.374459 0.0
1.280299 -0.226403 0.0
1.221953 -0.153700 0.0
1.174699 -0.100721 0.0
1.133565 -0.056750 0.0
1.092777 -0.021750 0.0
1.047987 0.003760 0.0
0.997194 0.018632 0.0
0.940835 0.021599 0.0
0.880525 0.008103 0.0
0.822296 -0.026486 0.0
0.782526 -0.077181 0.0
0.778598 -0.123261 0.0
0.813392 -0.140145 0.0
0.877334 -0.110431 0.0
0.954197 -0.034669 0.0
1.020657 0.055142 0.0
1.067119 0.128734 0.0
1.100028 0.186994 0.0
1.122370 0.232200 0.0
1.135342 0.266029 0.0
1.139741 0.289601 0.0
1.136504 0.303833 0.0
1.126763 0.309627 0.0
1.111771 0.307938 0.0
1.092791 0.299767 0.0
1.071019 0.286137 0.0
1.047519 0.268080 0.0
1.023185 0.246651 0.0
0.998728 0.222950 0.0
0.974697 0.198093 0.0
0.951532 0.173096 0.0
0.929652 0.148727 0.0
0.909523 0.125385 0.0
0.891681 0.103123 0.0
0.876690 0.081785 0.0
0.865052 0.061204 0.0
0.857121 0.041349 0.0
0.853046 0.022379 0.0
0.852761 0.004617 0.0
0.856008 -0.011518 0.0
0.862317 -0.025570 0.0
0.871029 -0.037154 0.0
0.881388 -0.046076 0.0
0.892658 -0.052351 0.0
0.904197 -0.056176 0.0
0.915501 -0.057866 0.0
0.926210 -0.057801 0.0
0.936091 -0.056373 0.0
0.945023 -0.053949 0.0
0.952969 -0.050852 0.0
0.959951 -0.047353 0.0
0.966031 -0.043663 0.0
0.971291 -0.039942 0.0
0.975825 -0.036305 0.0
0.979724 -0.032829 0.0
0.983075 -0.029562 0.0
0.985957 -0.026530 0.0
0.988439 -0.023745 0.0
0.990580 -0.021206 0.0
0.992432 -0.018904 0.0
0.994038 -0.016828 0.0
0.995433 -0.014961 0.0
0.996648 -0.013288 0.0
0.997708 -0.011793 0.0
0.998634 -0.010458 0.0
0.999445 -0.009269 0.0
1.000156 -0.008210 0.0
1.000780 -0.007269 0.0
1.001328 -0.006433 0.0
1.001810 -0.005690 0.0
1.002234 -0.005031 0.0
1.002607 -0.004447 0.0
1.002934 -0.003929 0.0
1.003223 -0.003470 0.0
1.003476 -0.003063 0.0
1.003698 -0.002702 0.0
1.003893 -0.002382 0.0
1.004064 -0.002099 0.0
1.004212 -0.001849 0.0
1.004341 -0.001628 0.0
1.004452 -0.001432 0.0
1.004547 -0.001259 0.0
1.004626 -0.001107 0.0
1.004691 -0.000973 0.0
1.004742 -0.000855 0.0
1.004779 -0.000753 0.0
1.004802 -0.000662 0.0
1.004811 -0.000583 0.0
1.004806 -0.000512 0.0
1.004786 -0.000443 0.0
0.999246 -0.013915 0.0
0.996142 -0.041984 0.0
0.989680 -0.072626 0.0
0.979496 -0.108802 0.0
0.965292 -0.154832 0.0
0.947495 -0.217757 0.0
0.929549 -0.310436 0.0
0.926442 -0.452810 0.0
1.024518 -0.817707 0.0
1.033836 -0.184964 0.0
0.863283 -0.097056 0.0
0.735590 -0.086921 0.0
0.674067 -0.058722 0.0
0.622244 -0.005791 0.0
0.546346 0.043977 0.0
0.453870 0.075300 0.0
0.364923 0.086833 0.0
0.295150 0.079531 0.0
0.253748 0.051883 0.0
0.243296 -0.001585 0.0
0.260789 -0.079805 0.0
0.302117 -0.158036 0.0
0.366199 -0.204246 0.0
0.451048 -0.195121 0.0
0.552030 -0.127824 0.0
0.659251 -0.025385 0.0
0.752640 0.069411 0.0
0.825245 0.140803 0.0
0.884196 0.197097 0.0
0.930875 0.241480 0.0
0.965685 0.274940 0.0
0.989379 0.298038 0.0
1.003110 0.311431 0.0
1.008263 0.315974 0.0
1.006289 0.312685 0.0
0.998593 0.302687 0.0
0.986460 0.287164 0.0
0.971010 0.267350 0.0
0.953201 0.244517 0.0
0.933862 0.219897 0.0
0.913785 0.194535 0.0
0.893809 0.169143 0.0
0.874872 0.144034 0.0
0.857969 0.119219 0.0
0.844043 0.094606 0.0
0.833864 0.070200 0.0
0.827941 0.046206 0.0
0.826509 0.023030 0.0
0.829531 0.001229 0.0
0.836638 -0.018483 0.0
0.847058 -0.035335 0.0
0.859769 -0.048813 0.0
0.873751 -0.058758 0.0
0.888126 -0.065314 0.0
0.902216 -0.068842 0.0
0.915535 -0.069824 0.0
0.927773 -0.068789 0.0
0.938759 -0.066253 0.0
0.948440 -0.062681 0.0
0.956840 -0.058467 0.0
0.964044 -0.053925 0.0
0.970168 -0.049295 0.0
0.975344 -0.044746 0.0
0.979703 -0.040394 0.0
0.983371 -0.036307 0.0
0.986459 -0.032523 0.0
0.989065 -0.029057 0.0
0.991271 -0.025907 0.0
0.993146 -0.023060 0.0
0.994745 -0.020501 0.0
0.996115 -0.018206 0.0
0.997293 -0.016155 0.0
0.998309 -0.014326 0.0
0.999189 -0.012696 0.0
0.999954 -0.011246 0.0
1.000619 -0.009957 0.0
1.001200 -0.008813 0.0
1.001707 -0.007797 0.0
1.002151 -0.006896 0.0
1.002540 -0.006097 0.0
1.002881 -0.005389 0.0
1.003180 -0.004761 0.0
1.003443 -0.004205 0.0
1.003673 -0.003712 0.0
1.003875 -0.003275 0.0
1.004052 -0.002888 0.0
1.004207 -0.002545 0.0
1.004341 -0.002242 0.0
1.004458 -0.001972 0.0
1.004559 -0.001734 0.0
1.004645 -0.001522 0.0
1.004717 -0.001335 0.0
1.004776 -0.001169 0.0
1.004824 -0.001022 0.0
1.004859 -0.000892 0.0
1.004882 -0.000776 0.0
1.004894 -0.000673 0.0
1.004893 -0.000580 0.0
1.004881 -0.000496 0.0
1.004856 -0.000413 0.0
0.998703 -0.011865 0.0
0.993351 -0.035578 0.0
0.981981 -0.061202 0.0
0.963133 -0.091194 0.0
0.934097 -0.129201 0.0
0.889888 -0.181382 0.0
0.820645 -0.259622 0.0
0.708199 -0.388069 0.0
0.319143 -0.692847 0.0
-0.474311 0.236441 0.0
-0.474311 0.000000 0.0
-0.032772 -0.023098 0.0
-0.067533 -0.035934 0.0
-0.040847 -0.003444 0.0
0.014081 0.062599 0.0
0.042171 0.121063 0.0
0.030142 0.142045 0.0
-0.003431 0.127665 0.0
-0.039858 0.081578 0.0
-0.064370 0.003684 0.0
-0.067222 -0.099715 0.0
-0.043879 -0.202797 0.0
0.006870 -0.274317 0.0
0.085450 -0.288478 0.0
0.187973 -0.237972 0.0
0.308374 -0.142859 0.0
0.436846 -0.034975 0.0
0.551788 0.057642 0.0
0.643784 0.129312 0.0
0.719242 0.187129 0.0
0.780346 0.233377 0.0
0.827981 0.268273 0.0
0.863279 0.292167 0.0
0.887584 0.305781 0.0
0.902305 0.310130 0.0
0.908826 0.306417 0.0
0.908442 0.295951 0.0
0.902350 0.280103 0.0
0.891675 0.260248 0.0
0.877542 0.237638 0.0
0.861164 0.213249 0.0
0.843904 0.187666 0.0
0.827231 0.161120 0.0
0.812613 0.133653 0.0
0.801371 0.105340 0.0
0.794565 0.076451 0.0
0.792934 0.047509 0.0
0.796837 0.019257 0.0
0.806071 -0.007253 0.0
0.819594 -0.030631 0.0
0.835856 -0.049869 0.0
0.853425 -0.064559 0.0
0.871200 -0.074768 0.0
0.888405 -0.080884 0.0
0.904528 -0.083484 0.0
0.919253 -0.083227 0.0
0.932414 -0.080785 0.0
0.943957 -0.076787 0.0
0.953915 -0.071784 0.0
0.962380 -0.066229 0.0
0.969490 -0.060476 0.0
0.975404 -0.054782 0.0
0.980290 -0.049321 0.0
0.984311 -0.044199 0.0
0.987615 -0.039473 0.0
0.990333 -0.035163 0.0
0.992576 -0.031266 0.0
0.994436 -0.027763 0.0
0.995987 -0.024629 0.0
0.997287 -0.021832 0.0
0.998383 -0.019342 0.0
0.999314 -0.017128 0.0
1.000107 -0.015163 0.0
1.000787 -0.013419 0.0
1.001373 -0.011872 0.0
1.001878 -0.010502 0.0
1.002316 -0.009287 0.0
1.002697 -0.008211 0.0
1.003028 -0.007258 0.0
1.003317 -0.006414 0.0
1.003570 -0.005666 0.0
1.003791 -0.005004 0.0
1.003984 -0.004418 0.0
1.004152 -0.003898 0.0
1.004300 -0.003438 0.0
1.004428 -0.003031 0.0
1.004540 -0.002669 0.0
1.004637 -0.002349 0.0
1.004720 -0.002065 0.0
1.004791 -0.001813 0.0
1.004851 -0.001589 0.0
1.004900 -0.001390 0.0
1.004939 -0.001213 0.0
1.004968 -0.001055 0.0
1.004988 -0.000914 0.0
1.004998 -0.000788 0.0
1.004998 -0.000674 0.0
1.004988 -0.000570 0.0
1.004968 -0.000475 0.0
1.004938 -0.000380 0.0
0.998316 -0.008884 0.0
0.991375 -0.026265 0.0
0.976596 -0.044366 0.0
0.951887 -0.064472 0.0
0.913203 -0.088204 0.0
0.852680 -0.117647 0.0
0.753740 -0.155175 0.0
0.577283 -0.203612 0.0
0.231370 -0.239344 0.0
0.000000 0.236441 0.0
-0.000000 -0.000000 0.0
0.000000 0.000000 0.0
-0.016230 -0.016972 0.0
-0.048942 -0.015637 0.0
-0.071582 0.042505 0.0
-0.095550 0.137035 0.0
-0.139984 0.182535 0.0
-0.193577 0.174341 0.0
-0.239978 0.117730 0.0
-0.266098 0.018164 0.0
-0.266408 -0.111034 0.0
-0.244607 -0.236622 0.0
-0.206270 -0.329577 0.0
-0.148555 -0.369513 0.0
-0.060878 -0.347138 0.0
0.052640 -0.267611 0.0
0.179715 -0.165770 0.0
0.312631 -0.059422 0.0
0.432682 0.034330 0.0
0.529640 0.109696 0.0
0.608875 0.170469 0.0
0.673667 0.218754 0.0
0.725205 0.254850 0.0
0.764607 0.279392 0.0
0.793009 0.293397 0.0
0.811528 0.298112 0.0
0.821278 0.294890 0.0
0.823413 0.285121 0.0
0.819195 0.270123 0.0
0.810077 0.251014 0.0
0.797755 0.228571 0.0
0.784150 0.203209 0.0
0.771309 0.175092 0.0
0.761251 0.144357 0.0
0.755791 0.111338 0.0
0.756337 0.076713 0.0
0.763666 0.041550 0.0
0.777607 0.007371 0.0
0.796485 -0.023481 0.0
0.817830 -0.049272 0.0
0.839715 -0.069375 0.0
0.860941 -0.083849 0.0
0.880833 -0.093145 0.0
0.899043 -0.097922 0.0
0.915417 -0.098941 0.0
0.929914 -0.096992 0.0
0.942569 -0.092836 0.0
0.953461 -0.087172 0.0
0.962707 -0.080603 0.0
0.970451 -0.073620 0.0
0.976857 -0.066601 0.0
0.982097 -0.059812 0.0
0.986344 -0.053425 0.0
0.989766 -0.047537 0.0
0.992512 -0.042186 0.0
0.994715 -0.037372 0.0
0.996487 -0.033072 0.0
0.997918 -0.029248 0.0
0.999081 -0.025857 0.0
1.000033 -0.022855 0.0
1.000819 -0.020200 0.0
1.001472 -0.017853 0.0
1.002019 -0.015778 0.0
1.002480 -0.013945 0.0
1.002871 -0.012323 0.0
1.003205 -0.010890 0.0
1.003490 -0.009623 0.0
1.003736 -0.008502 0.0
1.003948 -0.007511 0.0
1.004132 -0.006634 0.0
1.004291 -0.005858 0.0
1.004429 -0.005171 0.0
1.004548 -0.004564 0.0
1.004653 -0.004026 0.0
1.004743 -0.003549 0.0
1.004821 -0.003127 0.0
1.004888 -0.002753 0.0
1.004946 -0.002420 0.0
1.004995 -0.002126 0.0
1.005035 -0.001864 0.0
1.005068 -0.001631 0.0
1.005093 -0.001423 0.0
1.005111 -0.001237 0.0
1.005122 -0.001071 0.0
1.005126 -0.000921 0.0
1.005123 -0.000786 0.0
1.005111 -0.000664 0.0
1.005092 -0.000551 0.0
1.005065 -0.000447 0.0
1.005030 -0.000342 0.0
0.998161 -0.005360 0.0
0.990616 -0.015304 0.0
0.974677 -0.024609 0.0
0.948405 -0.033247 0.0
0.908330 -0.040671 0.0
0.848730 -0.045057 0.0
0.761159 -0.041253 0.0
0.634594 -0.014512 0.0
0.478340 0.078091 0.0
0.198322 0.179199 0.0
0.000000 0.000000 0.0
-0.000000 -0.000000 0.0
0.000000 0.000000 0.0
-0.000286 0.000422 0.0
-0.032953 0.081045 0.0
-0.103229 0.192740 0.0
-0.175585 0.243620 0.0
-0.237828 0.229091 0.0
-0.282137 0.153689 0.0
-0.299303 0.025493 0.0
-0.288321 -0.129036 0.0
-0.261246 -0.267498 0.0
-0.229203 -0.369080 0.0
-0.192694 -0.424234 0.0
-0.143895 -0.428894 0.0
-0.068817 -0.374452 0.0
0.032064 -0.286886 0.0
0.146403 -0.185560 0.0
0.265731 -0.078910 0.0
0.375256 0.016453 0.0
0.465691 0.094041 0.0
0.540021 0.156060 0.0
0.601291 0.204736 0.0
0.650488 0.240906 0.0
0.688326 0.265643 0.0
0.715499 0.280173 0.0
0.732835 0.285743 0.0
0.741421 0.283548 0.0
0.742704 0.274631 0.0
0.738560 0.259769 0.0
0.731294 0.239404 0.0
0.723564 0.213710 0.0
0.718183 0.182813 0.0
0.717778 0.147100 0.0
0.724349 0.107484 0.0
0.738834 0.065535 0.0
0.760753 0.023481 0.0
0.787394 -0.015141 0.0
0.815094 -0.047546 0.0
0.841549 -0.073007 0.0
0.865762 -0.091737 0.0
0.887384 -0.104335 0.0
0.906392 -0.111561 0.0
0.922923 -0.114247 0.0
0.937176 -0.113244 0.0
0.949374 -0.109385 0.0
0.959733 -0.103456 0.0
0.968455 -0.096166 0.0
0.975727 -0.088127 0.0