# vtk DataFile Version 3.0
Vector Field
ASCII
DATASET RECTILINEAR_GRID
DIMENSIONS 100 26 1
X_COORDINATES 100 double
0.050000 0.150000 0.250000 0.350000 0.450000 0.550000 0.650000 0.750000 0.850000 0.950000 1.050000 1.150000 1.250000 1.350000 1.450000 1.550000 1.650000 1.750000 1.850000 1.950000 2.050000 2.150000 2.250000 2.350000 2.450000 2.550000 2.650000 2.750000 2.850000 2.950000 3.050000 3.150000 3.250000 3.350000 3.450000 3.550000 3.650000 3.750000 3.850000 3.950000 4.050000 4.150000 4.250000 4.350000 4.450000 4.550000 4.650000 4.750000 4.850000 4.950000 5.050000 5.150000 5.250000 5.350000 5.450000 5.550000 5.650000 5.750000 5.850000 5.950000 6.050000 6.150000 6.250000 6.350000 6.450000 6.550000 6.650000 6.750000 6.850000 6.950000 7.050000 7.150000 7.250000 7.350000 7.450000 7.550000 7.650000 7.750000 7.850000 7.950000 8.050000 8.150000 8.250000 8.350000 8.450000 8.550000 8.650000 8.750000 8.850000 8.950000 9.050000 9.150000 9.250000 9.350000 9.450000 9.550000 9.650000 9.750000 9.850000 9.950000 
Y_COORDINATES 26 double
0.050000 0.150000 0.250000 0.350000 0.450000 0.550000 0.650000 0.750000 0.850000 0.950000 1.050000 1.150000 1.250000 1.350000 1.450000 1.550000 1.650000 1.750000 1.850000 1.950000 2.050000 2.150000 2.250000 2.350000 2.450000 2.550000 
Z_COORDINATES 1 double
0.0
POINT_DATA 2600
VECTORS Vektorfeld double
1.000746 -0.000746 0.0
1.004189 -0.002697 0.0
1.011698 -0.004813 0.0
1.023501 -0.006989 0.0
1.039637 -0.009147 0.0
1.059968 -0.011184 0.0
1.084113 -0.012961 0.0
1.111391 -0.014316 0.0
1.140804 -0.015097 0.0
1.171118 -0.015217 0.0
1.201043 -0.014708 0.0
1.229465 -0.013715 0.0
1.255610 -0.012430 0.0
1.279080 -0.011040 0.0
1.299802 -0.009681 0.0
1.317907 -0.008424 0.0
1.333598 -0.007268 0.0
1.347012 -0.006146 0.0
1.358101 -0.004944 0.0
1.366572 -0.003527 0.0
1.371887 -0.001789 0.0
1.373369 0.000306 0.0
1.370309 0.002754 0.0
1.362100 0.005456 0.0
1.348381 0.008263 0.0
1.329113 0.011005 0.0
1.304585 0.013523 0.0
1.275381 0.015682 0.0
1.242313 0.017386 0.0
1.206354 0.018573 0.0
1.168571 0.019209 0.0
1.130079 0.019282 0.0
1.092004 0.018793 0.0
1.055463 0.017748 0.0
1.021554 0.016160 0.0
0.991356 0.014038 0.0
0.965935 0.011382 0.0
0.946388 0.008165 0.0
0.933883 0.004340 0.0
0.929597 -0.000054 0.0
0.934352 -0.004700 0.0
0.948389 -0.009336 0.0
0.971431 -0.013706 0.0
1.002614 -0.017476 0.0
1.040337 -0.020247 0.0
1.082201 -0.021617 0.0
1.125080 -0.021262 0.0
1.165374 -0.019032 0.0
1.199470 -0.015063 0.0
1.224359 -0.009826 0.0
1.238260 -0.004074 0.0
1.240825 0.001509 0.0
1.232648 0.006668 0.0
1.214787 0.011194 0.0
1.188654 0.014939 0.0
1.155894 0.017821 0.0
1.118251 0.019823 0.0
1.077459 0.020969 0.0
1.035189 0.021302 0.0
0.993021 0.020866 0.0
0.952469 0.019686 0.0
0.915007 0.017776 0.0
0.882076 0.015155 0.0
0.855026 0.011895 0.0
0.834981 0.008150 0.0
0.822657 0.004175 0.0
0.818132 0.000351 0.0
0.820615 -0.002833 0.0
0.828779 -0.005331 0.0
0.841441 -0.007330 0.0
0.857804 -0.009034 0.0
0.877458 -0.010620 0.0
0.900291 -0.012212 0.0
0.926363 -0.013860 0.0
0.955737 -0.015515 0.0
0.988279 -0.017027 0.0
1.023459 -0.018153 0.0
1.060196 -0.018584 0.0
1.096768 -0.017987 0.0
1.130824 -0.016069 0.0
1.159577 -0.012684 0.0
1.180241 -0.007980 0.0
1.190703 -0.002482 0.0
1.190007 0.003178 0.0
1.178133 0.008697 0.0
1.155607 0.013829 0.0
1.123533 0.018245 0.0
1.083717 0.021571 0.0
1.038739 0.023407 0.0
0.991933 0.023399 0.0
0.947140 0.021393 0.0
0.908158 0.017589 0.0
0.877984 0.012584 0.0
0.858188 0.007212 0.0
0.848665 0.002311 0.0
0.847688 -0.001333 0.0
0.852337 -0.003316 0.0
0.859455 -0.003802 0.0
0.866228 -0.002971 0.0
0.868485 0.000714 0.0
1.001293 -0.002785 0.0
1.006132 -0.008939 0.0
1.015441 -0.015389 0.0
1.029204 -0.021979 0.0
1.047437 -0.028527 0.0
1.070044 -0.034741 0.0
1.096696 -0.040201 0.0
1.126725 -0.044383 0.0
1.159065 -0.046784 0.0
1.192308 -0.047087 0.0
1.224951 -0.045405 0.0
1.255737 -0.042225 0.0
1.283860 -0.038187 0.0
1.308989 -0.033883 0.0
1.331170 -0.029740 0.0
1.350677 -0.025976 0.0
1.367854 -0.022584 0.0
1.382963 -0.019352 0.0
1.396043 -0.015908 0.0
1.406825 -0.011815 0.0
1.414711 -0.006702 0.0
1.418845 -0.000396 0.0
1.418311 0.007050 0.0
1.412371 0.015309 0.0
1.400602 0.023898 0.0
1.382961 0.032280 0.0
1.359782 0.039955 0.0
1.331718 0.046518 0.0
1.299655 0.051680 0.0
1.264633 0.055260 0.0
1.227772 0.057166 0.0
1.190222 0.057368 0.0
1.153132 0.055873 0.0
1.117630 0.052711 0.0
1.084815 0.047922 0.0
1.055746 0.041544 0.0
1.031431 0.033612 0.0
1.012770 0.024144 0.0
1.000467 0.013170 0.0
0.995023 0.000845 0.0
0.997061 -0.012393 0.0
1.007399 -0.026019 0.0
1.026577 -0.039245 0.0
1.054438 -0.050981 0.0
1.089956 -0.059982 0.0
1.131225 -0.065016 0.0
1.175529 -0.065047 0.0
1.219464 -0.059477 0.0
1.259225 -0.048474 0.0
1.291136 -0.033216 0.0
1.312331 -0.015779 0.0
1.321378 0.001601 0.0
1.318511 0.017619 0.0
1.305016 0.031600 0.0
1.282570 0.043112 0.0
1.253024 0.051951 0.0
1.218270 0.058090 0.0
1.180142 0.061621 0.0
1.140375 0.062688 0.0
1.100587 0.061436 0.0
1.062272 0.057983 0.0
1.026773 0.052439 0.0
0.995217 0.044979 0.0
0.968399 0.035941 0.0
0.946656 0.025893 0.0
0.929822 0.015589 0.0
0.917437 0.005846 0.0
0.909258 -0.002633 0.0
0.905230 -0.009669 0.0
0.905143 -0.015566 0.0
0.908765 -0.020783 0.0
0.916013 -0.025773 0.0
0.927022 -0.030901 0.0
0.942120 -0.036340 0.0
0.961688 -0.041976 0.0
0.985953 -0.047371 0.0
1.014776 -0.051812 0.0
1.047520 -0.054407 0.0
1.082996 -0.054211 0.0
1.119476 -0.050380 0.0
1.154721 -0.042371 0.0
1.185986 -0.030223 0.0
1.210097 -0.014812 0.0
1.224122 0.002180 0.0
1.226790 0.018902 0.0
1.218607 0.034332 0.0
1.200892 0.047530 0.0
1.175503 0.057491 0.0
1.144744 0.063223 0.0
1.111198 0.063936 0.0
1.077478 0.059370 0.0
1.045941 0.050132 0.0
1.018399 0.037757 0.0
0.995872 0.024363 0.0
0.978492 0.012063 0.0
0.965864 0.002520 0.0
0.957457 -0.003413 0.0
0.952242 -0.005609 0.0
0.948512 -0.004206 0.0
0.944184 0.004020 0.0
1.001178 -0.005256 0.0
1.005824 -0.015954 0.0
1.015074 -0.026933 0.0
1.029025 -0.038150 0.0
1.047835 -0.049399 0.0
1.071588 -0.060229 0.0
1.100123 -0.069901 0.0
1.132829 -0.077418 0.0
1.168485 -0.081745 0.0
1.205219 -0.082103 0.0
1.240919 -0.078733 0.0
1.273931 -0.072696 0.0
1.303373 -0.065281 0.0
1.329062 -0.057606 0.0
1.351303 -0.050439 0.0
1.370671 -0.044152 0.0
1.387800 -0.038716 0.0
1.403197 -0.033727 0.0
1.417055 -0.028471 0.0
1.429103 -0.022080 0.0
1.438566 -0.013786 0.0
1.444323 -0.003204 0.0
1.445201 0.009513 0.0
1.440253 0.023734 0.0
1.428941 0.038553 0.0
1.411229 0.052979 0.0
1.387543 0.066121 0.0
1.358672 0.077287 0.0
1.325638 0.086008 0.0
1.289579 0.092012 0.0
1.251671 0.095183 0.0
1.213071 0.095501 0.0
1.174893 0.093009 0.0
1.138190 0.087781 0.0
1.103950 0.079907 0.0
1.073090 0.069487 0.0
1.046454 0.056621 0.0
1.024834 0.041415 0.0
1.009060 0.023976 0.0
1.000105 0.004437 0.0
0.999042 -0.016960 0.0
1.006738 -0.039486 0.0
1.023520 -0.061737 0.0
1.049042 -0.081872 0.0
1.082402 -0.097968 0.0
1.122289 -0.108185 0.0
1.166914 -0.110806 0.0
1.213728 -0.104467 0.0
1.259178 -0.088696 0.0
1.298861 -0.064588 0.0
1.328360 -0.035101 0.0
1.344703 -0.004467 0.0
1.347553 0.023706 0.0
1.338525 0.048036 0.0
1.319758 0.067890 0.0
1.293445 0.083032 0.0
1.261686 0.093523 0.0
1.226391 0.099612 0.0
1.189236 0.101619 0.0
1.151661 0.099867 0.0
1.114868 0.094660 0.0
1.079809 0.086320 0.0
1.047172 0.075290 0.0
1.017387 0.062231 0.0
0.990694 0.048038 0.0
0.967247 0.033724 0.0
0.947176 0.020169 0.0
0.930514 0.007884 0.0
0.917234 -0.002878 0.0
0.907251 -0.012286 0.0
0.900485 -0.020919 0.0
0.897105 -0.029506 0.0
0.897645 -0.038718 0.0
0.902916 -0.048893 0.0
0.913738 -0.059814 0.0
0.930614 -0.070673 0.0
0.953509 -0.080229 0.0
0.981809 -0.087035 0.0
1.014399 -0.089650 0.0
1.049782 -0.086804 0.0
1.086169 -0.077579 0.0
1.121523 -0.061635 0.0
1.153550 -0.039538 0.0
1.179618 -0.013188 0.0
1.197120 0.014100 0.0
1.204958 0.039480 0.0
1.203695 0.061360 0.0
1.194486 0.078258 0.0
1.178840 0.088862 0.0
1.158402 0.092281 0.0
1.134769 0.088378 0.0
1.109373 0.078056 0.0
1.083485 0.063262 0.0
1.058282 0.046588 0.0
1.034867 0.030633 0.0
1.014084 0.017362 0.0
0.996260 0.007976 0.0
0.981274 0.003203 0.0
0.968707 0.003279 0.0
0.958550 0.011020 0.0
1.001124 -0.007557 0.0
1.005631 -0.022806 0.0
1.014762 -0.038462 0.0
1.028820 -0.054630 0.0
1.048240 -0.071149 0.0
1.073463 -0.087455 0.0
1.104698 -0.102445 0.0
1.141546 -0.114428 0.0
1.182655 -0.121501 0.0
1.225215 -0.121641 0.0
1.265764 -0.115443 0.0
1.301919 -0.105154 0.0
1.332798 -0.093144 0.0
1.358600 -0.081235 0.0
1.380134 -0.070586 0.0
1.398490 -0.061727 0.0
1.414804 -0.054584 0.0
1.430038 -0.048489 0.0
1.444711 -0.042240 0.0
1.458642 -0.034289 0.0
1.470782 -0.023179 0.0
1.479370 -0.008156 0.0
1.482520 0.010436 0.0
1.478792 0.031486 0.0
1.467443 0.053461 0.0
1.448482 0.074745 0.0
1.422564 0.093959 0.0
1.390783 0.110102 0.0
1.354453 0.122558 0.0
1.314948 0.131026 0.0
1.273604 0.135422 0.0
1.231665 0.135800 0.0
1.190270 0.132282 0.0
1.150458 0.125023 0.0
1.113174 0.114188 0.0
1.079291 0.099949 0.0
1.049622 0.082465 0.0
1.024963 0.061850 0.0
1.006143 0.038136 0.0
0.994033 0.011341 0.0
0.989396 -0.018164 0.0
0.992575 -0.049156 0.0
1.003365 -0.079639 0.0
1.021283 -0.107409 0.0
1.046025 -0.130534 0.0
1.077662 -0.147143 0.0
1.116231 -0.155042 0.0
1.161002 -0.151816 0.0
1.209791 -0.135587 0.0
1.258589 -0.106178 0.0
1.301739 -0.066160 0.0
1.333092 -0.021104 0.0
1.348788 0.021797 0.0
1.349218 0.058541 0.0
1.337116 0.088254 0.0
1.315368 0.110728 0.0
1.286706 0.126247 0.0
1.253523 0.135367 0.0
1.217795 0.138747 0.0
1.181069 0.137039 0.0
1.144492 0.130858 0.0
1.108857 0.120816 0.0
1.074680 0.107609 0.0
1.042298 0.092080 0.0
1.011969 0.075212 0.0
0.983925 0.058041 0.0
0.958329 0.041520 0.0
0.935177 0.026346 0.0
0.914297 0.012820 0.0
0.895573 0.000723 0.0
0.879238 -0.010827 0.0
0.866111 -0.023089 0.0
0.857534 -0.037098 0.0
0.854968 -0.053218 0.0
0.859488 -0.070832 0.0
0.871442 -0.088485 0.0
0.890431 -0.104301 0.0
0.915523 -0.116354 0.0
0.945487 -0.122884 0.0
0.978951 -0.122417 0.0
1.014473 -0.113875 0.0
1.050546 -0.096766 0.0
1.085562 -0.071449 0.0
1.117703 -0.039486 0.0
1.144653 -0.004054 0.0
1.164205 0.030244 0.0
1.175611 0.060453 0.0
1.179304 0.084680 0.0
1.176014 0.101377 0.0
1.166619 0.109599 0.0
1.152038 0.109274 0.0
1.133218 0.101376 0.0
1.111205 0.087844 0.0
1.087200 0.071214 0.0
1.062506 0.054115 0.0
1.038346 0.038823 0.0
1.015677 0.027009 0.0
0.995156 0.019678 0.0
0.977296 0.017231 0.0
0.963343 0.021179 0.0
1.001049 -0.009731 0.0
1.005293 -0.029384 0.0
1.014028 -0.049750 0.0
1.027809 -0.071181 0.0
1.047486 -0.093696 0.0
1.074096 -0.116741 0.0
1.108581 -0.138878 0.0
1.151140 -0.157402 0.0
1.200700 -0.169194 0.0
1.252448 -0.168256 0.0
1.299733 -0.156660 0.0
1.339110 -0.139470 0.0
1.370229 -0.120827 0.0
1.394240 -0.103365 0.0
1.412829 -0.088579 0.0
1.427852 -0.077113 0.0
1.441175 -0.068836 0.0
1.454488 -0.062784 0.0
1.468982 -0.057113 0.0
1.484881 -0.049245 0.0
1.500978 -0.036461 0.0
1.514540 -0.017026 0.0
1.522184 0.008512 0.0
1.521360 0.037963 0.0
1.510937 0.068756 0.0
1.491010 0.098338 0.0
1.462606 0.124688 0.0
1.427276 0.146483 0.0
1.386757 0.163025 0.0
1.342752 0.174069 0.0
1.296819 0.179656 0.0
1.250345 0.179980 0.0
1.204548 0.175295 0.0
1.160505 0.165866 0.0
1.119187 0.151947 0.0
1.081481 0.133779 0.0
1.048199 0.111586 0.0
1.020039 0.085548 0.0
0.997505 0.055794 0.0
0.980759 0.022539 0.0
0.969530 -0.013496 0.0
0.963247 -0.050719 0.0
0.961336 -0.086956 0.0
0.963833 -0.120507 0.0
0.972050 -0.150396 0.0
0.988299 -0.175166 0.0
1.014676 -0.191966 0.0
1.051909 -0.196897 0.0
1.098850 -0.186236 0.0
1.152411 -0.157887 0.0
1.207551 -0.112741 0.0
1.257380 -0.055706 0.0
1.294038 0.004044 0.0
1.313341 0.056562 0.0
1.316580 0.099098 0.0
1.306832 0.131380 0.0
1.287177 0.153911 0.0
1.260445 0.167618 0.0
1.229066 0.173603 0.0
1.194992 0.172981 0.0
1.159688 0.166797 0.0
1.124172 0.156028 0.0
1.089109 0.141635 0.0
1.054933 0.124612 0.0
1.021928 0.106014 0.0
0.990247 0.086964 0.0
0.959867 0.068573 0.0
0.930609 0.051704 0.0
0.902351 0.036600 0.0
0.875435 0.022583 0.0
0.850956 0.008127 0.0
0.830627 -0.008587 0.0
0.816389 -0.028786 0.0
0.809819 -0.052392 0.0
0.811555 -0.077913 0.0
0.821255 -0.103057 0.0
0.837959 -0.125423 0.0
0.860485 -0.142851 0.0
0.887655 -0.153521 0.0
0.918358 -0.155948 0.0
0.951535 -0.149043 0.0
0.986129 -0.132265 0.0
1.021024 -0.105861 0.0
1.054964 -0.071155 0.0
1.086417 -0.030788 0.0
1.113131 0.010712 0.0
1.133259 0.048451 0.0
1.146344 0.079905 0.0
1.152489 0.103298 0.0
1.151994 0.117569 0.0
1.145304 0.122574 0.0
1.133032 0.119167 0.0
1.116007 0.109090 0.0
1.095296 0.094683 0.0
1.072139 0.078496 0.0
1.047831 0.062910 0.0
1.023614 0.049807 0.0
1.000672 0.040342 0.0
0.980209 0.034890 0.0
0.964179 0.033503 0.0
1.000908 -0.011688 0.0
1.004609 -0.035371 0.0
1.012369 -0.060255 0.0
1.025017 -0.087104 0.0
1.043923 -0.116357 0.0
1.071005 -0.147774 0.0
1.108533 -0.179858 0.0
1.158149 -0.208598 0.0
1.220788 -0.230197 0.0
1.286621 -0.224836 0.0
1.341177 -0.201921 0.0
1.380833 -0.173242 0.0
1.407794 -0.145136 0.0
1.425268 -0.120539 0.0
1.436171 -0.100896 0.0
1.443183 -0.086831 0.0
1.448944 -0.078201 0.0
1.456077 -0.073864 0.0
1.466907 -0.071356 0.0
1.482759 -0.066754 0.0
1.503030 -0.055320 0.0
1.524326 -0.033025 0.0
1.540643 0.000551 0.0
1.546651 0.040741 0.0
1.540244 0.082809 0.0
1.521709 0.122747 0.0
1.492665 0.157727 0.0
1.455298 0.186142 0.0
1.411848 0.207336 0.0
1.364357 0.221254 0.0
1.314599 0.228161 0.0
1.264089 0.228459 0.0
1.214130 0.222572 0.0
1.165869 0.210892 0.0
1.120343 0.193764 0.0
1.078507 0.171504 0.0
1.041194 0.144457 0.0
1.008935 0.113094 0.0
0.981611 0.078106 0.0
0.958089 0.040495 0.0
0.936331 0.001534 0.0
0.914525 -0.037659 0.0
0.892706 -0.076285 0.0
0.873555 -0.114522 0.0
0.861931 -0.152974 0.0
0.862750 -0.189657 0.0
0.878596 -0.219698 0.0
0.909327 -0.237128 0.0
0.953015 -0.236634 0.0
1.006737 -0.214771 0.0
1.066709 -0.170969 0.0
1.127912 -0.108510 0.0
1.183494 -0.035391 0.0
1.225204 0.034985 0.0
1.249408 0.093231 0.0
1.258057 0.138345 0.0
1.253851 0.170808 0.0
1.239538 0.191767 0.0
1.217675 0.202697 0.0
1.190484 0.205152 0.0
1.159778 0.200637 0.0
1.126943 0.190540 0.0
1.092981 0.176147 0.0
1.058573 0.158685 0.0
1.024110 0.139409 0.0
0.989696 0.119664 0.0
0.955181 0.100767 0.0
0.920389 0.083559 0.0
0.885601 0.067790 0.0
0.852050 0.051859 0.0
0.821993 0.033388 0.0
0.798064 0.010410 0.0
0.782187 -0.017669 0.0
0.775036 -0.049788 0.0
0.776242 -0.083459 0.0
0.784799 -0.115768 0.0
0.799504 -0.144121 0.0
0.819242 -0.166417 0.0
0.843075 -0.180958 0.0
0.870220 -0.186360 0.0
0.899985 -0.181573 0.0
0.931688 -0.166031 0.0
0.964584 -0.139886 0.0
0.997791 -0.104276 0.0
1.030196 -0.061525 0.0
1.060243 -0.015313 0.0
1.085746 0.028845 0.0
1.105191 0.066981 0.0
1.118198 0.097070 0.0
1.124628 0.117862 0.0
1.124569 0.129030 0.0
1.118350 0.131203 0.0
1.106567 0.125862 0.0
1.090086 0.115104 0.0
1.069997 0.101322 0.0
1.047546 0.086844 0.0
1.024090 0.073547 0.0
1.001093 0.062542 0.0
0.980140 0.054107 0.0
0.963482 0.046973 0.0
1.000662 -0.013258 0.0
1.003385 -0.040225 0.0
1.009249 -0.069025 0.0
1.019290 -0.101023 0.0
1.035380 -0.137433 0.0
1.060525 -0.178925 0.0
1.099100 -0.224808 0.0
1.155857 -0.270020 0.0
1.238944 -0.314500 0.0
1.324490 -0.291912 0.0
1.380381 -0.245291 0.0
1.409991 -0.199137 0.0
1.423027 -0.159239 0.0
1.425724 -0.126606 0.0
1.421772 -0.101780 0.0
1.413997 -0.085184 0.0
1.405262 -0.076874 0.0
1.398893 -0.075957 0.0
1.398632 -0.079831 0.0
1.407816 -0.083317 0.0
1.428066 -0.079277 0.0
1.457553 -0.059851 0.0
1.488652 -0.020039 0.0
1.509914 0.034060 0.0
1.515021 0.090790 0.0
1.504554 0.143768 0.0
1.481049 0.189255 0.0
1.447467 0.225563 0.0
1.406507 0.252325 0.0
1.360419 0.269842 0.0
1.311063 0.278687 0.0
1.260004 0.279503 0.0
1.208601 0.272889 0.0
1.158084 0.259354 0.0
1.109601 0.239312 0.0
1.064241 0.213151 0.0
1.022931 0.181433 0.0
0.986019 0.145288 0.0
0.952511 0.106744 0.0
0.919514 0.068377 0.0
0.882951 0.031971 0.0
0.840134 -0.003474 0.0
0.794175 -0.042693 0.0
0.754993 -0.089780 0.0
0.732428 -0.143528 0.0
0.729867 -0.197361 0.0
0.745254 -0.243228 0.0
0.775058 -0.274135 0.0
0.816408 -0.284665 0.0
0.867137 -0.271192 0.0
0.925121 -0.232504 0.0
0.987617 -0.170674 0.0
1.050619 -0.091811 0.0
1.107430 -0.007117 0.0
1.150720 0.067839 0.0
1.178137 0.127671 0.0
1.191340 0.172484 0.0
1.192389 0.203355 0.0
1.183461 0.221900 0.0
1.166653 0.229947 0.0
1.143852 0.229349 0.0
1.116650 0.221864 0.0
1.086311 0.209124 0.0
1.053745 0.192682 0.0
1.019489 0.174131 0.0
0.983710 0.155135 0.0
0.946389 0.137133 0.0
0.907764 0.120610 0.0
0.868919 0.104373 0.0
0.832066 0.085681 0.0
0.800120 0.061569 0.0
0.775699 0.030578 0.0
0.760187 -0.006448 0.0
0.753444 -0.047115 0.0
0.754382 -0.088276 0.0
0.761702 -0.126828 0.0
0.774219 -0.160283 0.0
0.790970 -0.186745 0.0
0.811226 -0.204719 0.0
0.834453 -0.212970 0.0
0.860241 -0.210516 0.0
0.888217 -0.196768 0.0
0.917946 -0.171775 0.0
0.948842 -0.136492 0.0
0.980099 -0.092972 0.0
1.010612 -0.044426 0.0
1.038557 0.004509 0.0
1.061946 0.048482 0.0
1.079683 0.084826 0.0
1.091307 0.112052 0.0
1.096618 0.129587 0.0
1.095695 0.137788 0.0
1.088906 0.137849 0.0
1.076905 0.131599 0.0
1.060605 0.121215 0.0
1.041152 0.108853 0.0
1.019910 0.096236 0.0
0.998444 0.084315 0.0
0.978486 0.073245 0.0
0.962301 0.060676 0.0
1.000286 -0.014206 0.0
1.001483 -0.043199 0.0
1.004247 -0.074680 0.0
1.009588 -0.110750 0.0
1.019566 -0.153773 0.0
1.038053 -0.206217 0.0
1.072008 -0.270047 0.0
1.131955 -0.341485 0.0
1.244873 -0.439040 0.0
1.350150 -0.358195 0.0
1.383879 -0.268628 0.0
1.381450 -0.202982 0.0
1.366224 -0.153204 0.0
1.345052 -0.114166 0.0
1.319742 -0.084960 0.0
1.291380 -0.065869 0.0
1.261512 -0.057588 0.0
1.232950 -0.060312 0.0
1.210551 -0.072814 0.0
1.200581 -0.089549 0.0
1.209147 -0.101860 0.0
1.239686 -0.097295 0.0
1.288470 -0.062477 0.0
1.338815 0.004890 0.0
1.372210 0.081457 0.0
1.384751 0.151028 0.0
1.380794 0.209457 0.0
1.364152 0.255583 0.0
1.337731 0.289686 0.0
1.303737 0.312563 0.0
1.263949 0.325109 0.0
1.219928 0.328162 0.0
1.173112 0.322448 0.0
1.124869 0.308556 0.0
1.076526 0.286937 0.0
1.029401 0.258011 0.0
0.984584 0.222700 0.0
0.941826 0.183691 0.0
0.897540 0.146135 0.0
0.844988 0.114536 0.0
0.780707 0.086656 0.0
0.712600 0.052765 0.0
0.656702 0.002925 0.0
0.624832 -0.064345 0.0
0.617455 -0.139021 0.0
0.627665 -0.209516 0.0
0.649073 -0.267868 0.0
0.678546 -0.308773 0.0
0.715239 -0.328069 0.0
0.759155 -0.322432 0.0
0.810086 -0.290179 0.0
0.867018 -0.232427 0.0
0.927833 -0.153875 0.0
0.988953 -0.062985 0.0
1.043341 0.026029 0.0
1.085011 0.100396 0.0
1.113124 0.158442 0.0
1.128640 0.200832 0.0
1.132964 0.229027 0.0
1.127706 0.244886 0.0
1.114499 0.250418 0.0
1.094870 0.247626 0.0
1.070128 0.238444 0.0
1.041276 0.224780 0.0
1.008957 0.208609 0.0
0.973518 0.191874 0.0
0.935326 0.175906 0.0
0.895317 0.160470 0.0
0.855445 0.143229 0.0
0.818563 0.120560 0.0
0.787602 0.089597 0.0
0.764576 0.049996 0.0
0.750124 0.004098 0.0
0.743685 -0.044478 0.0
0.744071 -0.092238 0.0
0.750030 -0.136145 0.0
0.760455 -0.173908 0.0
0.774452 -0.203868 0.0
0.791366 -0.224765 0.0
0.810781 -0.235566 0.0
0.832480 -0.235408 0.0
0.856341 -0.223713 0.0
0.882210 -0.200427 0.0
0.909783 -0.166308 0.0
0.938512 -0.123142 0.0
0.967547 -0.073802 0.0
0.995643 -0.022156 0.0
1.020854 0.026547 0.0
1.041484 0.068395 0.0
1.056747 0.101596 0.0
1.066195 0.125285 0.0
1.069679 0.139528 0.0
1.067354 0.145223 0.0
1.059667 0.143913 0.0
1.047358 0.137511 0.0
1.031447 0.127921 0.0
1.013230 0.116628 0.0
0.994253 0.104365 0.0
0.976231 0.091176 0.0
0.961278 0.073883 0.0
0.999784 -0.014276 0.0
0.998924 -0.043467 0.0
0.997351 -0.075603 0.0
0.995633 -0.113450 0.0
0.995225 -0.160643 0.0
0.999600 -0.222208 0.0
1.016903 -0.305315 0.0
1.064981 -0.414242 0.0
1.206670 -0.620892 0.0
1.306695 -0.381646 0.0
1.264797 -0.237009 0.0
1.200629 -0.168004 0.0
1.147224 -0.119551 0.0
1.100191 -0.079613 0.0
1.054442 -0.048454 0.0
1.007359 -0.026929 0.0
0.956419 -0.015720 0.0
0.900788 -0.017986 0.0
0.846155 -0.038107 0.0
0.806937 -0.075068 0.0
0.800093 -0.118062 0.0
0.833405 -0.144944 0.0
0.901373 -0.131579 0.0
0.990018 -0.064997 0.0
1.072709 0.035257 0.0
1.130037 0.127358 0.0
1.164717 0.202404 0.0
1.182406 0.261590 0.0
1.186120 0.306387 0.0
1.177834 0.338143 0.0
1.159200 0.357950 0.0
1.131825 0.366716 0.0
1.097312 0.365221 0.0
1.057213 0.354125 0.0
1.012901 0.334023 0.0
0.965102 0.305850 0.0
0.912610 0.272170 0.0
0.851086 0.238502 0.0
0.775911 0.210785 0.0
0.690634 0.187714 0.0
0.611360 0.157032 0.0
0.557111 0.104746 0.0
0.535469 0.028483 0.0
0.538993 -0.061557 0.0
0.555138 -0.150577 0.0
0.576179 -0.229212 0.0
0.599493 -0.292893 0.0
0.624976 -0.338703 0.0
0.653846 -0.363702 0.0
0.687859 -0.364728 0.0
0.728442 -0.339397 0.0
0.775975 -0.287673 0.0
0.829519 -0.212988 0.0
0.886844 -0.122316 0.0
0.943827 -0.026012 0.0
0.993769 0.060824 0.0
1.032303 0.131367 0.0
1.059166 0.185528 0.0
1.074845 0.224327 0.0
1.080280 0.249409 0.0
1.076641 0.262740 0.0
1.065164 0.266411 0.0
1.047001 0.262565 0.0
1.023096 0.253415 0.0
0.994142 0.241247 0.0
0.960725 0.228093 0.0
0.923723 0.214882 0.0
0.884788 0.200439 0.0
0.846502 0.181418 0.0
0.811880 0.153875 0.0
0.783444 0.115679 0.0
0.762532 0.067852 0.0
0.749285 0.013940 0.0
0.743088 -0.041683 0.0
0.742962 -0.095293 0.0
0.747822 -0.143907 0.0
0.756624 -0.185373 0.0
0.768449 -0.218227 0.0
0.782596 -0.241468 0.0
0.798653 -0.254335 0.0
0.816495 -0.256178 0.0
0.836194 -0.246502 0.0
0.857863 -0.225177 0.0
0.881485 -0.192754 0.0
0.906785 -0.150726 0.0
0.933164 -0.101631 0.0
0.959674 -0.048933 0.0
0.984787 0.003001 0.0
1.006711 0.049387 0.0
1.024205 0.087845 0.0
1.036600 0.117194 0.0
1.043544 0.137192 0.0
1.044994 0.148435 0.0
1.041212 0.152169 0.0
1.032767 0.150009 0.0
1.020541 0.143561 0.0
1.005718 0.134029 0.0
0.989737 0.121921 0.0
0.974194 0.107186 0.0
0.960968 0.086053 0.0
0.999214 -0.013274 0.0
0.995992 -0.040385 0.0
0.989307 -0.070428 0.0
0.978802 -0.106402 0.0
0.964173 -0.152653 0.0
0.945817 -0.216216 0.0
0.927084 -0.309878 0.0
0.922697 -0.453369 0.0
1.017900 -0.818656 0.0
1.021980 -0.187375 0.0
0.844458 -0.101004 0.0
0.708982 -0.094120 0.0
0.635641 -0.066689 0.0
0.577541 -0.027343 0.0
0.507415 0.015151 0.0
0.423052 0.040913 0.0
0.343403 0.047025 0.0
0.286520 0.031784 0.0
0.262610 -0.009334 0.0
0.274832 -0.076845 0.0
0.320483 -0.155092 0.0
0.394018 -0.214761 0.0
0.489189 -0.224901 0.0
0.598583 -0.169714 0.0
0.713950 -0.058084 0.0
0.814524 0.062798 0.0
0.888497 0.158311 0.0
0.942850 0.233641 0.0
0.980607 0.292866 0.0
1.002763 0.337795 0.0
1.010279 0.369416 0.0
1.004418 0.388487 0.0
0.986636 0.395745 0.0
0.958335 0.392001 0.0
0.920358 0.378437 0.0
0.872016 0.357577 0.0
0.810530 0.334420 0.0
0.733924 0.314383 0.0
0.648096 0.295908 0.0
0.569825 0.266139 0.0
0.517407 0.210299 0.0
0.497314 0.125821 0.0
0.502530 0.023833 0.0
0.521292 -0.079192 0.0
0.544693 -0.172488 0.0
0.568205 -0.251854 0.0
0.590058 -0.315418 0.0
0.610300 -0.361904 0.0
0.630475 -0.389547 0.0
0.653228 -0.395649 0.0
0.681423 -0.377253 0.0
0.716997 -0.332923 0.0
0.760220 -0.264506 0.0
0.809708 -0.177612 0.0
0.862775 -0.080765 0.0
0.914202 0.014209 0.0
0.958308 0.095343 0.0
0.992609 0.160390 0.0
1.016696 0.209698 0.0
1.030795 0.244505 0.0
1.035524 0.266555 0.0
1.031706 0.277891 0.0
1.020200 0.280754 0.0
1.001782 0.277549 0.0
0.977150 0.270699 0.0
0.947138 0.262070 0.0
0.913106 0.251938 0.0
0.877241 0.238182 0.0
0.842390 0.216813 0.0
0.811356 0.184136 0.0
0.786117 0.139094 0.0
0.767521 0.083946 0.0
0.755558 0.023056 0.0
0.749773 -0.038816 0.0
0.749454 -0.097715 0.0
0.753692 -0.150583 0.0
0.761474 -0.195281 0.0
0.771811 -0.230480 0.0
0.783891 -0.255442 0.0
0.797213 -0.269741 0.0
0.811647 -0.273049 0.0
0.827384 -0.265066 0.0
0.844767 -0.245664 0.0
0.864077 -0.215199 0.0
0.885344 -0.174847 0.0
0.908232 -0.126778 0.0
0.932023 -0.074088 0.0
0.955617 -0.020551 0.0
0.977383 0.029249 0.0
0.995809 0.072063 0.0
1.010017 0.106373 0.0
1.019466 0.131620 0.0
1.023934 0.148089 0.0
1.023513 0.156718 0.0
1.018614 0.158804 0.0
1.009971 0.155635 0.0
0.998621 0.148128 0.0
0.985847 0.136576 0.0
0.973062 0.120858 0.0
0.961869 0.096801 0.0
0.998682 -0.011170 0.0
0.993244 -0.033829 0.0
0.981709 -0.058764 0.0
0.962610 -0.088463 0.0
0.933237 -0.126590 0.0
0.888598 -0.179284 0.0
0.818840 -0.258320 0.0
0.705739 -0.387438 0.0
0.317723 -0.692387 0.0
-0.466741 0.237445 0.0
-0.466741 0.000000 0.0
-0.035049 -0.024702 0.0
-0.074734 -0.033427 0.0
-0.068742 -0.008497 0.0
-0.036210 0.033899 0.0
-0.005708 0.076028 0.0
-0.001203 0.087053 0.0
-0.011450 0.058886 0.0
-0.018903 -0.005074 0.0
-0.011770 -0.100461 0.0
0.017368 -0.206266 0.0
0.072250 -0.292005 0.0
0.154209 -0.324786 0.0
0.259247 -0.284262 0.0
0.378491 -0.178148 0.0
0.502001 -0.041222 0.0
0.610590 0.079768 0.0
0.695444 0.172976 0.0
0.762214 0.249003 0.0
0.811328 0.310387 0.0
0.842939 0.357697 0.0
0.857696 0.391310 0.0
0.856529 0.411871 0.0
0.840154 0.420549 0.0
0.808391 0.419629 0.0
0.759913 0.413205 0.0
0.694489 0.405702 0.0
0.618382 0.395814 0.0
0.547162 0.371525 0.0
0.498519 0.317437 0.0
0.480248 0.229690 0.0
0.487397 0.119374 0.0
0.509606 0.002854 0.0
0.537687 -0.105056 0.0
0.565873 -0.198210 0.0
0.591191 -0.274962 0.0
0.612087 -0.335058 0.0
0.628273 -0.378691 0.0
0.640944 -0.405606 0.0
0.652876 -0.414275 0.0
0.667919 -0.401864 0.0
0.689699 -0.365667 0.0
0.720171 -0.305458 0.0
0.759008 -0.224985 0.0
0.804035 -0.131486 0.0
0.851760 -0.034224 0.0
0.896742 0.054688 0.0
0.934588 0.128898 0.0
0.963898 0.187794 0.0
0.984185 0.232023 0.0
0.995506 0.262986 0.0
0.998221 0.282563 0.0
0.992835 0.292975 0.0
0.979907 0.296673 0.0
0.960117 0.295996 0.0
0.934512 0.292389 0.0
0.904813 0.285350 0.0
0.873474 0.271974 0.0
0.843273 0.248074 0.0
0.816588 0.210594 0.0
0.794888 0.159575 0.0
0.778756 0.098192 0.0
0.768246 0.031283 0.0
0.763152 -0.036163 0.0
0.763010 -0.099908 0.0
0.767055 -0.156673 0.0
0.774299 -0.204217 0.0
0.783691 -0.241273 0.0
0.794296 -0.267334 0.0
0.805476 -0.282351 0.0
0.817014 -0.286412 0.0
0.829121 -0.279547 0.0
0.842305 -0.261750 0.0
0.857130 -0.233248 0.0
0.873954 -0.194889 0.0
0.892758 -0.148428 0.0
0.913087 -0.096558 0.0
0.934096 -0.042683 0.0
0.954466 0.009246 0.0
0.972707 0.055399 0.0
0.987703 0.093833 0.0
0.998756 0.123658 0.0
1.005489 0.144849 0.0
1.007842 0.158025 0.0
1.006078 0.164159 0.0
1.000777 0.164224 0.0
0.992811 0.158856 0.0
0.983270 0.148163 0.0
0.973356 0.131970 0.0
0.964379 0.105860 0.0
0.998306 -0.008158 0.0
0.991323 -0.024421 0.0
0.976450 -0.041763 0.0
0.951585 -0.061500 0.0
0.912674 -0.085269 0.0
0.851866 -0.115157 0.0
0.752684 -0.153507 0.0
0.576356 -0.202821 0.0
0.231015 -0.240447 0.0
0.000000 0.237445 0.0
-0.000000 -0.000000 0.0
0.000000 0.000000 0.0
-0.014430 -0.014396 0.0
-0.040653 -0.007331 0.0
-0.063166 0.022714 0.0
-0.091003 0.084547 0.0
-0.129221 0.112246 0.0
-0.169134 0.083853 0.0
-0.197978 0.006256 0.0
-0.205750 -0.111150 0.0
-0.190481 -0.239983 0.0
-0.155639 -0.348012 0.0
-0.099057 -0.407320 0.0
-0.010473 -0.395350 0.0
0.105656 -0.302433 0.0
0.233491 -0.168282 0.0
0.361670 -0.029940 0.0
0.472938 0.086562 0.0
0.560695 0.180891 0.0
0.629512 0.260567 0.0
0.679387 0.326031 0.0
0.710328 0.377278 0.0
0.722445 0.414954 0.0
0.715543 0.440744 0.0
0.689091 0.457649 0.0
0.643829 0.468924 0.0
0.585590 0.473646 0.0
0.527911 0.461655 0.0
0.487366 0.417448 0.0
0.473339 0.334185 0.0
0.483587 0.220965 0.0
0.509752 0.094785 0.0
0.543325 -0.028338 0.0
0.577877 -0.136497 0.0
0.609659 -0.226737 0.0
0.636536 -0.298630 0.0
0.657120 -0.352870 0.0
0.670822 -0.390768 0.0
0.678186 -0.413564 0.0
0.681363 -0.421426 0.0
0.684250 -0.412642 0.0
0.691658 -0.384076 0.0
0.707538 -0.333400 0.0
0.733379 -0.261721 0.0
0.767972 -0.174369 0.0
0.808337 -0.079432 0.0
0.849921 0.013331 0.0
0.887923 0.094406 0.0
0.919529 0.161369 0.0
0.943582 0.214107 0.0
0.959594 0.253570 0.0
0.967473 0.281384 0.0
0.967366 0.299646 0.0
0.959619 0.310677 0.0
0.944890 0.316511 0.0
0.924382 0.317987 0.0
0.900007 0.313827 0.0
0.874222 0.300619 0.0
0.849492 0.274359 0.0
0.827682 0.232804 0.0
0.809844 0.176904 0.0
0.796448 0.110391 0.0
0.787697 0.038343 0.0
0.783627 -0.034059 0.0
0.783971 -0.102214 0.0
0.788073 -0.162515 0.0
0.794996 -0.212542 0.0
0.803676 -0.251019 0.0
0.813103 -0.277621 0.0
0.822515 -0.292656 0.0
0.831557 -0.296686 0.0
0.840371 -0.290193 0.0
0.849531 -0.273447 0.0
0.859821 -0.246666 0.0
0.871933 -0.210408 0.0
0.886201 -0.165980 0.0
0.902478 -0.115611 0.0
0.920152 -0.062313 0.0
0.938209 -0.009552 0.0
0.955300 0.038865 0.0
0.970185 0.080487 0.0
0.982034 0.114103 0.0
0.990336 0.139370 0.0
0.994895 0.156591 0.0
0.995834 0.166419 0.0
0.993576 0.169521 0.0
0.988816 0.166285 0.0
0.982436 0.156655 0.0
0.975408 0.140420 0.0
0.968752 0.113043 0.0
0.998164 -0.004628 0.0
0.990622 -0.013426 0.0
0.974672 -0.021934 0.0
0.948350 -0.030143 0.0
0.908161 -0.037526 0.0
0.848356 -0.042287 0.0
0.760440 -0.039280 0.0
0.633543 -0.013822 0.0
0.476727 0.076526 0.0
0.197292 0.178358 0.0
0.000000 0.000000 0.0
-0.000000 -0.000000 0.0
0.000000 0.000000 0.0
0.000865 0.002231 0.0
-0.026358 0.061523 0.0
-0.094758 0.141975 0.0
-0.170157 0.168435 0.0
-0.230079 0.127499 0.0
-0.265344 0.026718 0.0
-0.271739 -0.117446 0.0
-0.256588 -0.264108 0.0
-0.231345 -0.383972 0.0
-0.199052 -0.460236 0.0
-0.152065 -0.478005 0.0
-0.070445 -0.417527 0.0
0.042655 -0.294122 0.0
0.166253 -0.155877 0.0
0.287389 -0.019905 0.0
0.390507 0.096484 0.0
0.471384 0.195280 0.0
0.532798 0.280028 0.0
0.574400 0.350737 0.0
0.595652 0.408126 0.0
0.596208 0.453919 0.0
0.577087 0.490047 0.0
0.543205 0.515671 0.0
0.505511 0.522833 0.0
0.478489 0.497169 0.0
0.472356 0.428611 0.0
0.487658 0.321746 0.0
0.518322 0.192493 0.0
0.557607 0.057807 0.0
0.599134 -0.066460 0.0
0.638011 -0.171804 0.0
0.671838 -0.257041 0.0
0.699087 -0.322452 0.0
0.718772 -0.369317 0.0
0.730392 -0.399642 0.0
0.734074 -0.415736 0.0
0.731052 -0.419410 0.0
0.724303 -0.410797 0.0
0.718625 -0.387652 0.0
0.719397 -0.346477 0.0
0.730389 -0.285477 0.0
0.752231 -0.207048 0.0
0.782698 -0.117586 0.0
0.817991 -0.025391 0.0
0.853303 0.059815 0.0
0.884754 0.132904 0.0
0.910474 0.192800 0.0
0.929446 0.239893 0.0
0.941159 0.275470 0.0
0.945444 0.301383 0.0
0.942472 0.319659 0.0
0.932888 0.331843 0.0
0.917973 0.338078 0.0
0.899657 0.336428 0.0
0.880182 0.323277 0.0
0.861552 0.295062 0.0
0.845115 0.250347 0.0
0.831593 0.190720 0.0
0.821393 0.120172 0.0