# vtk DataFile Version 3.0
Vector Field
ASCII
DATASET RECTILINEAR_GRID
DIMENSIONS 100 26 1
X_COORDINATES 100 double
0.050000 0.150000 0.250000 0.350000 0.450000 0.550000 0.650000 0.750000 0.850000 0.950000 1.050000 1.150000 1.250000 1.350000 1.450000 1.550000 1.650000 1.750000 1.850000 1.950000 2.050000 2.150000 2.250000 2.350000 2.450000 2.550000 2.650000 2.750000 2.850000 2.950000 3.050000 3.150000 3.250000 3.350000 3.450000 3.550000 3.650000 3.750000 3.850000 3.950000 4.050000 4.150000 4.250000 4.350000 4.450000 4.550000 4.650000 4.750000 4.850000 4.950000 5.050000 5.150000 5.250000 5.350000 5.450000 5.550000 5.650000 5.750000 5.850000 5.950000 6.050000 6.150000 6.250000 6.350000 6.450000 6.550000 6.650000 6.750000 6.850000 6.950000 7.050000 7.150000 7.250000 7.350000 7.450000 7.550000 7.650000 7.750000 7.850000 7.950000 8.050000 8.150000 8.250000 8.350000 8.450000 8.550000 8.650000 8.750000 8.850000 8.950000 9.050000 9.150000 9.250000 9.350000 9.450000 9.550000 9.650000 9.750000 9.850000 9.950000 
Y_COORDINATES 26 double
0.050000 0.150000 0.250000 0.350000 0.450000 0.550000 0.650000 0.750000 0.850000 0.950000 1.050000 1.150000 1.250000 1.350000 1.450000 1.550000 1.650000 1.750000 1.850000 1.950000 2.050000 2.150000 2.250000 2.350000 2.450000 2.550000 
Z_COORDINATES 1 double
0.0
POINT_DATA 2600
VECTORS Vektorfeld double
0.997778 0.002222 0.0
0.993453 0.002103 0.0
0.990935 0.000415 0.0
0.992439 -0.001919 0.0
0.998833 -0.004476 0.0
1.010272 -0.006963 0.0
1.026335 -0.009099 0.0
1.046029 -0.010595 0.0
1.067815 -0.011191 0.0
1.089731 -0.010725 0.0
1.109661 -0.009204 0.0
1.125662 -0.006797 0.0
1.136234 -0.003775 0.0
1.140520 -0.000510 0.0
1.138323 0.002707 0.0
1.129789 0.005827 0.0
1.115252 0.008710 0.0
1.095313 0.011229 0.0
1.070817 0.013268 0.0
1.042813 0.014736 0.0
1.012513 0.015564 0.0
0.981233 0.015716 0.0
0.950328 0.015189 0.0
0.921117 0.014023 0.0
0.894792 0.012302 0.0
0.872331 0.010158 0.0
0.854404 0.007769 0.0
0.841273 0.005363 0.0
0.832695 0.003215 0.0
0.827854 0.001626 0.0
0.825371 0.000857 0.0
0.823362 0.001151 0.0
0.819604 0.002607 0.0
0.811888 0.005109 0.0
0.798378 0.008402 0.0
0.777840 0.012136 0.0
0.749762 0.015942 0.0
0.714345 0.019475 0.0
0.672430 0.022440 0.0
0.625397 0.024593 0.0
0.575054 0.025751 0.0
0.523519 0.025783 0.0
0.473166 0.024570 0.0
0.426755 0.021841 0.0
0.387859 0.017055 0.0
0.360938 0.009866 0.0
0.349556 0.001517 0.0
0.352292 -0.004253 0.0
0.363413 -0.006867 0.0
0.378193 -0.007912 0.0
0.394145 -0.008039 0.0
0.409761 -0.007578 0.0
0.424066 -0.006728 0.0
0.436424 -0.005630 0.0
0.446449 -0.004395 0.0
0.453965 -0.003121 0.0
0.458999 -0.001913 0.0
0.461771 -0.000859 0.0
0.462520 0.000110 0.0
0.460941 0.001468 0.0
0.456165 0.003309 0.0
0.447466 0.005391 0.0
0.434631 0.007444 0.0
0.418113 0.009074 0.0
0.399228 0.009811 0.0
0.380051 0.009366 0.0
0.362783 0.007903 0.0
0.348832 0.006048 0.0
0.338250 0.004534 0.0
0.329978 0.003738 0.0
0.322732 0.003508 0.0
0.315827 0.003396 0.0
0.309397 0.003034 0.0
0.304012 0.002352 0.0
0.300121 0.001538 0.0
0.297757 0.000827 0.0
0.296617 0.000313 0.0
0.296264 0.000040 0.0
0.296276 -0.000052 0.0
0.296374 -0.000046 0.0
0.296333 0.000088 0.0
0.295803 0.000442 0.0
0.294403 0.000958 0.0
0.291960 0.001485 0.0
0.288633 0.001841 0.0
0.284851 0.001941 0.0
0.281075 0.001836 0.0
0.277574 0.001665 0.0
0.274341 0.001568 0.0
0.271167 0.001605 0.0
0.267827 0.001735 0.0
0.264217 0.001874 0.0
0.260393 0.001950 0.0
0.256525 0.001918 0.0
0.252857 0.001749 0.0
0.249697 0.001411 0.0
0.247421 0.000864 0.0
0.246446 0.000111 0.0
0.246901 -0.000566 0.0
0.249198 -0.001731 0.0
1.003072 0.001372 0.0
1.012039 -0.001689 0.0
1.026102 -0.007338 0.0
1.044656 -0.014224 0.0
1.067640 -0.021548 0.0
1.094927 -0.028617 0.0
1.126098 -0.034680 0.0
1.160301 -0.038912 0.0
1.196180 -0.040540 0.0
1.231935 -0.039047 0.0
1.265585 -0.034463 0.0
1.295372 -0.027326 0.0
1.319980 -0.018427 0.0
1.338469 -0.008632 0.0
1.350170 0.001325 0.0
1.354911 0.011000 0.0
1.353038 0.019947 0.0
1.345195 0.027773 0.0
1.332276 0.034138 0.0
1.315381 0.038765 0.0
1.295770 0.041447 0.0
1.274810 0.042073 0.0
1.253909 0.040637 0.0
1.234433 0.037261 0.0
1.217625 0.032198 0.0
1.204509 0.025840 0.0
1.195794 0.018727 0.0
1.191785 0.011545 0.0
1.192282 0.005114 0.0
1.196535 0.000315 0.0
1.203116 -0.001929 0.0
1.210017 -0.000955 0.0
1.215006 0.003482 0.0
1.215804 0.011151 0.0
1.210429 0.021245 0.0
1.197574 0.032684 0.0
1.176698 0.044348 0.0
1.147982 0.055203 0.0
1.112241 0.064368 0.0
1.070812 0.071126 0.0
1.025452 0.074922 0.0
0.978269 0.075330 0.0
0.931683 0.071962 0.0
0.888270 0.064274 0.0
0.850105 0.051683 0.0
0.817546 0.034718 0.0
0.789102 0.016491 0.0
0.765633 0.001503 0.0
0.751175 -0.009287 0.0
0.746925 -0.016023 0.0
0.750710 -0.019664 0.0
0.760308 -0.021168 0.0
0.774075 -0.021210 0.0
0.790835 -0.020265 0.0
0.809685 -0.018634 0.0
0.829765 -0.016478 0.0
0.850017 -0.013842 0.0
0.868970 -0.010654 0.0
0.884812 -0.006686 0.0
0.896327 -0.001673 0.0
0.903434 0.004118 0.0
0.906388 0.010327 0.0
0.905347 0.016383 0.0
0.900487 0.021513 0.0
0.891872 0.024872 0.0
0.879284 0.026069 0.0
0.862256 0.025495 0.0
0.840521 0.024141 0.0
0.814571 0.022972 0.0
0.785928 0.022215 0.0
0.756942 0.021264 0.0
0.730275 0.019212 0.0
0.708327 0.015597 0.0
0.692706 0.010795 0.0
0.683888 0.005804 0.0
0.681153 0.001660 0.0
0.682826 -0.001053 0.0
0.687101 -0.002515 0.0
0.692781 -0.003188 0.0
0.699069 -0.003297 0.0
0.705201 -0.002753 0.0
0.710624 -0.001610 0.0
0.715194 -0.000160 0.0
0.719003 0.001237 0.0
0.722069 0.002350 0.0
0.724143 0.003139 0.0
0.724850 0.003707 0.0
0.723889 0.004255 0.0
0.721160 0.004940 0.0
0.716799 0.005769 0.0
0.711124 0.006588 0.0
0.704545 0.007209 0.0
0.697483 0.007502 0.0
0.690302 0.007415 0.0
0.683289 0.006933 0.0
0.676650 0.006027 0.0
0.670551 0.004623 0.0
0.665290 0.002588 0.0
0.661950 -0.000158 0.0
0.662574 -0.005060 0.0
1.001981 -0.003681 0.0
1.009117 -0.012740 0.0
1.022210 -0.023443 0.0
1.040769 -0.035233 0.0
1.064691 -0.047444 0.0
1.093899 -0.059216 0.0
1.128064 -0.069416 0.0
1.166336 -0.076650 0.0
1.207150 -0.079495 0.0
1.248135 -0.076832 0.0
1.286584 -0.068778 0.0
1.320259 -0.056472 0.0
1.347747 -0.041378 0.0
1.368395 -0.024817 0.0
1.382079 -0.007875 0.0
1.389018 0.008519 0.0
1.389664 0.023657 0.0
1.384651 0.036919 0.0
1.374795 0.047767 0.0
1.361075 0.055751 0.0
1.344609 0.060538 0.0
1.326612 0.061938 0.0
1.308349 0.059937 0.0
1.291073 0.054714 0.0
1.275964 0.046661 0.0
1.264077 0.036381 0.0
1.256290 0.024688 0.0
1.253269 0.012615 0.0
1.255407 0.001409 0.0
1.262602 -0.007428 0.0
1.274074 -0.012238 0.0
1.288241 -0.011714 0.0
1.302775 -0.005281 0.0
1.315190 0.006702 0.0
1.323282 0.022978 0.0
1.325382 0.041707 0.0
1.320569 0.061014 0.0
1.308620 0.079202 0.0
1.289894 0.094836 0.0
1.265211 0.106769 0.0
1.235741 0.114108 0.0
1.202902 0.116167 0.0
1.168208 0.112404 0.0
1.132994 0.102458 0.0
1.098061 0.086597 0.0
1.063799 0.066627 0.0
1.031039 0.045786 0.0
1.000690 0.026026 0.0
0.972934 0.008404 0.0
0.949257 -0.005787 0.0
0.931949 -0.016375 0.0
0.921512 -0.023617 0.0
0.917312 -0.028329 0.0
0.918594 -0.031188 0.0
0.924651 -0.032619 0.0
0.934861 -0.032784 0.0
0.948680 -0.031608 0.0
0.965673 -0.028833 0.0
0.985509 -0.024186 0.0
1.007616 -0.017795 0.0
1.030777 -0.010027 0.0
1.053518 -0.001223 0.0
1.074497 0.007993 0.0
1.092422 0.016839 0.0
1.106006 0.024579 0.0
1.113980 0.030977 0.0
1.115298 0.036297 0.0
1.109559 0.040815 0.0
1.097206 0.044600 0.0
1.079321 0.047115 0.0
1.057239 0.047433 0.0
1.032157 0.044791 0.0
1.004944 0.039179 0.0
0.976283 0.031494 0.0
0.947121 0.023086 0.0
0.919210 0.015024 0.0
0.895325 0.007795 0.0
0.878217 0.001470 0.0
0.868922 -0.003559 0.0
0.866395 -0.006687 0.0
0.868850 -0.007951 0.0
0.874867 -0.007851 0.0
0.883210 -0.006831 0.0
0.892533 -0.005225 0.0
0.901528 -0.003248 0.0
0.909222 -0.001030 0.0
0.915057 0.001334 0.0
0.918860 0.003786 0.0
0.920770 0.006228 0.0
0.921166 0.008446 0.0
0.920572 0.010181 0.0
0.919525 0.011240 0.0
0.918505 0.011554 0.0
0.917882 0.011167 0.0
0.917896 0.010180 0.0
0.918645 0.008670 0.0
0.920117 0.006608 0.0
0.922244 0.003738 0.0
0.924722 -0.000446 0.0
0.928407 -0.009080 0.0
1.001603 -0.007264 0.0
1.007856 -0.022545 0.0
1.020113 -0.038987 0.0
1.038353 -0.056489 0.0
1.062807 -0.074564 0.0
1.093765 -0.092263 0.0
1.131279 -0.108048 0.0
1.174715 -0.119726 0.0
1.222342 -0.124860 0.0
1.270685 -0.120795 0.0
1.315429 -0.108007 0.0
1.353482 -0.088970 0.0
1.383424 -0.066312 0.0
1.404955 -0.042062 0.0
1.418325 -0.017684 0.0
1.424061 0.005653 0.0
1.422862 0.027078 0.0
1.415541 0.045831 0.0
1.403044 0.061208 0.0
1.386470 0.072605 0.0
1.367050 0.079570 0.0
1.346108 0.081844 0.0
1.325008 0.079394 0.0
1.305103 0.072439 0.0
1.287690 0.061458 0.0
1.273973 0.047189 0.0
1.265041 0.030598 0.0
1.261897 0.012869 0.0
1.265381 -0.004468 0.0
1.275837 -0.019202 0.0
1.292655 -0.028754 0.0
1.314011 -0.030722 0.0
1.336975 -0.023773 0.0
1.358104 -0.008349 0.0
1.374559 0.013482 0.0
1.384756 0.038906 0.0
1.388121 0.065262 0.0
1.384754 0.090269 0.0
1.375164 0.112085 0.0
1.360076 0.129292 0.0
1.340300 0.140831 0.0
1.316644 0.145939 0.0
1.289823 0.144147 0.0
1.260355 0.135398 0.0
1.228557 0.120389 0.0
1.194801 0.100852 0.0
1.159915 0.079206 0.0
1.125223 0.057646 0.0
1.092166 0.037597 0.0
1.061513 0.019350 0.0
1.033820 0.003489 0.0
1.010465 -0.009689 0.0
0.992619 -0.020211 0.0
0.980407 -0.028375 0.0
0.973473 -0.034555 0.0
0.971363 -0.038948 0.0
0.973713 -0.041612 0.0
0.980422 -0.042531 0.0
0.991767 -0.041669 0.0
1.008339 -0.038991 0.0
1.030770 -0.034423 0.0
1.059185 -0.027983 0.0
1.092617 -0.019659 0.0
1.128739 -0.009556 0.0
1.164018 0.002111 0.0
1.194657 0.014832 0.0
1.218071 0.027710 0.0
1.233311 0.039901 0.0
1.240301 0.050877 0.0
1.239374 0.059651 0.0
1.231111 0.065242 0.0
1.216153 0.067022 0.0
1.195266 0.065048 0.0
1.169554 0.059997 0.0
1.140587 0.052713 0.0
1.110121 0.043772 0.0
1.079540 0.033512 0.0
1.049741 0.022659 0.0
1.021941 0.012348 0.0
0.998347 0.003528 0.0
0.981102 -0.003377 0.0
0.970651 -0.007991 0.0
0.965821 -0.010205 0.0
0.964920 -0.010273 0.0
0.966325 -0.008600 0.0
0.968585 -0.005631 0.0
0.970508 -0.001824 0.0
0.971323 0.002327 0.0
0.970820 0.006280 0.0
0.969330 0.009487 0.0
0.967543 0.011522 0.0
0.966318 0.012170 0.0
0.966507 0.011455 0.0
0.968797 0.009598 0.0
0.973590 0.006942 0.0
0.980924 0.003826 0.0
0.990452 0.000452 0.0
1.001395 -0.003177 0.0
1.012629 -0.007243 0.0
1.022544 -0.015883 0.0
1.001414 -0.010282 0.0
1.007092 -0.031458 0.0
1.018594 -0.053834 0.0
1.036349 -0.077637 0.0
1.061110 -0.102629 0.0
1.093847 -0.127892 0.0
1.135422 -0.151509 0.0
1.185878 -0.170156 0.0
1.243841 -0.180020 0.0
1.303528 -0.173665 0.0
1.356963 -0.153317 0.0
1.399979 -0.124730 0.0
1.431924 -0.092439 0.0
1.453546 -0.059088 0.0
1.465746 -0.026227 0.0
1.469356 0.004850 0.0
1.465205 0.033232 0.0
1.454154 0.058049 0.0
1.437236 0.078405 0.0
1.415706 0.093512 0.0
1.391005 0.102784 0.0
1.364688 0.105888 0.0
1.338364 0.102773 0.0
1.313637 0.093692 0.0
1.292042 0.079213 0.0
1.274995 0.060199 0.0
1.263776 0.037740 0.0
1.259601 0.013046 0.0
1.263661 -0.012190 0.0
1.276712 -0.034987 0.0
1.298400 -0.051475 0.0
1.326851 -0.057807 0.0
1.358636 -0.051436 0.0
1.389134 -0.032312 0.0
1.413645 -0.003523 0.0
1.429472 0.029888 0.0
1.436475 0.063913 0.0
1.435677 0.095782 0.0
1.428368 0.123471 0.0
1.415767 0.145596 0.0
1.398834 0.161236 0.0
1.378216 0.169808 0.0
1.354268 0.171047 0.0
1.327120 0.165113 0.0
1.296825 0.152767 0.0
1.263610 0.135444 0.0
1.228108 0.115003 0.0
1.191389 0.093261 0.0
1.154775 0.071655 0.0
1.119595 0.051124 0.0
1.086920 0.032083 0.0
1.057332 0.014659 0.0
1.031350 -0.000730 0.0
1.009502 -0.013796 0.0
0.991693 -0.024390 0.0
0.977388 -0.032699 0.0
0.966290 -0.039113 0.0
0.958713 -0.044161 0.0
0.955714 -0.048384 0.0
0.958929 -0.052064 0.0
0.970131 -0.054984 0.0
0.990625 -0.056332 0.0
1.020788 -0.054905 0.0
1.059883 -0.049527 0.0
1.106026 -0.039339 0.0
1.155937 -0.024268 0.0
1.204545 -0.005212 0.0
1.246072 0.016056 0.0
1.277091 0.036713 0.0
1.297226 0.054606 0.0
1.307047 0.068728 0.0
1.307195 0.078345 0.0
1.298534 0.083275 0.0
1.282230 0.083786 0.0
1.259746 0.080376 0.0
1.232692 0.073629 0.0
1.202676 0.064253 0.0
1.171286 0.053107 0.0
1.140006 0.040981 0.0
1.109932 0.028563 0.0
1.081860 0.016905 0.0
1.056824 0.007214 0.0
1.035932 0.000311 0.0
1.019456 -0.003411 0.0
1.006504 -0.003916 0.0
0.995535 -0.001605 0.0
0.985057 0.002704 0.0
0.974163 0.007879 0.0
0.962714 0.012680 0.0
0.951261 0.016030 0.0
0.940815 0.017212 0.0
0.932551 0.015967 0.0
0.927543 0.012478 0.0
0.926564 0.007264 0.0
0.930000 0.001047 0.0
0.937788 -0.005401 0.0
0.949314 -0.011376 0.0
0.963454 -0.016432 0.0
0.978724 -0.020492 0.0
0.991952 -0.025777 0.0
1.001224 -0.012921 0.0
1.006209 -0.039481 0.0
1.016551 -0.067655 0.0
1.033075 -0.098095 0.0
1.057167 -0.131024 0.0
1.090799 -0.165866 0.0
1.136311 -0.200623 0.0
1.195390 -0.230578 0.0
1.269005 -0.251176 0.0
1.345629 -0.238819 0.0
1.408586 -0.204555 0.0
1.454070 -0.161991 0.0
1.484886 -0.117939 0.0
1.504305 -0.074630 0.0
1.514111 -0.032690 0.0
1.515034 0.006779 0.0
1.507543 0.042943 0.0
1.492242 0.074689 0.0
1.470142 0.100783 0.0
1.442641 0.120164 0.0
1.411408 0.132066 0.0
1.378273 0.136058 0.0
1.345139 0.132061 0.0
1.313904 0.120367 0.0
1.286378 0.101659 0.0
1.264179 0.076998 0.0
1.248614 0.047725 0.0
1.240629 0.015220 0.0
1.241245 -0.019039 0.0
1.251634 -0.051577 0.0
1.272256 -0.077195 0.0
1.302318 -0.090601 0.0
1.339627 -0.087736 0.0
1.380060 -0.066942 0.0
1.417199 -0.030544 0.0
1.444183 0.014099 0.0
1.458460 0.058421 0.0
1.461853 0.098679 0.0
1.456851 0.132886 0.0
1.445587 0.160046 0.0
1.429591 0.179716 0.0
1.409780 0.191757 0.0
1.386576 0.196250 0.0
1.360081 0.193553 0.0
1.330296 0.184407 0.0
1.297353 0.169962 0.0
1.261697 0.151642 0.0
1.224139 0.130898 0.0
1.185775 0.108995 0.0
1.147831 0.086906 0.0
1.111467 0.065341 0.0
1.077541 0.044914 0.0
1.046302 0.026236 0.0
1.017258 0.010129 0.0
0.989521 -0.002769 0.0
0.962243 -0.012738 0.0
0.935392 -0.021126 0.0
0.910556 -0.029735 0.0
0.890772 -0.040027 0.0
0.879528 -0.052392 0.0
0.879567 -0.065897 0.0
0.892123 -0.078468 0.0
0.916918 -0.087726 0.0
0.952728 -0.091610 0.0
0.997890 -0.088561 0.0
1.050511 -0.077577 0.0
1.108371 -0.058371 0.0
1.168190 -0.032131 0.0
1.224110 -0.002040 0.0
1.269493 0.027841 0.0
1.301562 0.053603 0.0
1.320913 0.073970 0.0
1.328661 0.088562 0.0
1.326088 0.097376 0.0
1.314653 0.100705 0.0
1.295935 0.099072 0.0
1.271568 0.093193 0.0
1.243183 0.083941 0.0
1.212339 0.072271 0.0
1.180453 0.059233 0.0
1.148762 0.045998 0.0
1.118175 0.033744 0.0
1.089107 0.023741 0.0
1.061526 0.017216 0.0
1.035107 0.014827 0.0
1.009405 0.016324 0.0
0.984117 0.020539 0.0
0.959368 0.025687 0.0
0.935834 0.029856 0.0
0.914644 0.031497 0.0
0.897100 0.029736 0.0
0.884346 0.024461 0.0
0.877122 0.016216 0.0
0.875660 0.005967 0.0
0.879685 -0.005117 0.0
0.888419 -0.015760 0.0
0.900715 -0.024839 0.0
0.915206 -0.031599 0.0
0.930264 -0.035653 0.0
0.943177 -0.036756 0.0
1.000948 -0.015093 0.0
1.004852 -0.046198 0.0
1.013147 -0.079574 0.0
1.026940 -0.116493 0.0
1.048217 -0.157996 0.0
1.080173 -0.204482 0.0
1.127459 -0.254805 0.0
1.195266 -0.303281 0.0
1.292449 -0.349271 0.0
1.391623 -0.316521 0.0
1.457129 -0.255317 0.0
1.494218 -0.193802 0.0
1.515262 -0.137989 0.0
1.527787 -0.086525 0.0
1.534007 -0.036820 0.0
1.532930 0.011064 0.0
1.523235 0.055843 0.0
1.504719 0.095607 0.0
1.478208 0.128477 0.0
1.445190 0.152989 0.0
1.407514 0.168149 0.0
1.367222 0.173403 0.0
1.326451 0.168622 0.0
1.287353 0.154139 0.0
1.251973 0.130793 0.0
1.222071 0.099965 0.0
1.198811 0.063583 0.0
1.182249 0.023908 0.0
1.171644 -0.017737 0.0
1.167964 -0.059588 0.0
1.173712 -0.095553 0.0
1.191163 -0.119757 0.0
1.222044 -0.126770 0.0
1.265823 -0.112119 0.0
1.317759 -0.074443 0.0
1.367633 -0.018860 0.0
1.404025 0.040710 0.0
1.423987 0.093035 0.0
1.431332 0.136187 0.0
1.429379 0.169961 0.0
1.420453 0.194723 0.0
1.406016 0.210999 0.0
1.386885 0.219342 0.0
1.363476 0.220364 0.0
1.336027 0.214830 0.0
1.304809 0.203701 0.0
1.270278 0.188091 0.0
1.233145 0.169141 0.0
1.194356 0.147906 0.0
1.154985 0.125310 0.0
1.116026 0.102261 0.0
1.078049 0.079896 0.0
1.040799 0.059743 0.0
1.003072 0.043393 0.0
0.963327 0.031449 0.0
0.921109 0.022540 0.0
0.878345 0.013211 0.0
0.839431 -0.000321 0.0
0.809845 -0.020071 0.0
0.793931 -0.045188 0.0
0.793074 -0.072283 0.0
0.805937 -0.097501 0.0
0.830242 -0.117794 0.0
0.863958 -0.131068 0.0
0.905585 -0.135893 0.0
0.954001 -0.131282 0.0
1.008162 -0.116688 0.0
1.066761 -0.092231 0.0
1.127884 -0.058982 0.0
1.187662 -0.020377 0.0
1.239268 0.018146 0.0
1.277763 0.051581 0.0
1.302840 0.078125 0.0
1.315649 0.097577 0.0
1.317527 0.110062 0.0
1.309955 0.116005 0.0
1.294489 0.116093 0.0
1.272696 0.111220 0.0
1.246086 0.102447 0.0
1.216037 0.090992 0.0
1.183717 0.078251 0.0
1.149995 0.065799 0.0
1.115422 0.055328 0.0
1.080305 0.048327 0.0
1.044868 0.045571 0.0
1.009447 0.046703 0.0
0.974698 0.050197 0.0
0.941697 0.053779 0.0
0.911862 0.055133 0.0
0.886688 0.052584 0.0
0.867405 0.045476 0.0
0.854714 0.034166 0.0
0.848691 0.019759 0.0
0.848841 0.003737 0.0
0.854210 -0.012280 0.0
0.863572 -0.026692 0.0
0.875636 -0.038266 0.0
0.889082 -0.046109 0.0
0.902475 -0.049595 0.0
0.913936 -0.047189 0.0
1.000540 -0.016581 0.0
1.002797 -0.050872 0.0
1.007769 -0.088166 0.0
1.016578 -0.130503 0.0
1.031459 -0.180144 0.0
1.056579 -0.239410 0.0
1.099386 -0.309972 0.0
1.171406 -0.387942 0.0
1.301047 -0.491434 0.0
1.420486 -0.392970 0.0
1.461208 -0.285097 0.0
1.464977 -0.204879 0.0
1.460831 -0.143809 0.0
1.459602 -0.092002 0.0
1.462467 -0.040429 0.0
1.463412 0.014805 0.0
1.456196 0.069013 0.0
1.439143 0.118006 0.0
1.412806 0.158926 0.0
1.378515 0.189848 0.0
1.337966 0.209515 0.0
1.293095 0.217201 0.0
1.246008 0.212681 0.0
1.198871 0.196314 0.0
1.153697 0.169171 0.0
1.112048 0.133138 0.0
1.074702 0.091017 0.0
1.041177 0.046560 0.0
1.008874 0.002518 0.0
0.976873 -0.044162 0.0
0.952042 -0.091895 0.0
0.944922 -0.133746 0.0
0.961905 -0.160644 0.0
1.003615 -0.163734 0.0
1.066228 -0.137377 0.0
1.142294 -0.081867 0.0
1.217518 -0.007900 0.0
1.275937 0.063264 0.0
1.314099 0.120451 0.0
1.337015 0.164734 0.0
1.348148 0.197742 0.0
1.349721 0.220845 0.0
1.343205 0.235143 0.0
1.329618 0.241558 0.0
1.309743 0.240960 0.0
1.284281 0.234251 0.0
1.253977 0.222376 0.0
1.219679 0.206287 0.0
1.182324 0.186904 0.0
1.142809 0.165198 0.0
1.101656 0.142485 0.0
1.058507 0.120798 0.0
1.011896 0.102704 0.0
0.960130 0.089925 0.0
0.903463 0.081330 0.0
0.845986 0.072354 0.0
0.794964 0.057184 0.0
0.757432 0.032153 0.0
0.736790 -0.002318 0.0
0.732146 -0.042384 0.0
0.740310 -0.082395 0.0
0.758038 -0.117980 0.0
0.783020 -0.146603 0.0
0.813917 -0.166872 0.0
0.850087 -0.177886 0.0
0.891281 -0.178899 0.0
0.937347 -0.169299 0.0
0.987944 -0.148817 0.0
1.042288 -0.117863 0.0
1.098922 -0.077907 0.0
1.155115 -0.032123 0.0
1.205154 0.013316 0.0
1.243783 0.052684 0.0
1.269945 0.084047 0.0
1.284409 0.107251 0.0
1.288257 0.122538 0.0
1.282776 0.130506 0.0
1.269329 0.132046 0.0
1.249264 0.128295 0.0
1.223831 0.120625 0.0
1.194110 0.110659 0.0
1.160977 0.100246 0.0
1.125133 0.091299 0.0
1.087217 0.085388 0.0
1.047982 0.083182 0.0
1.008463 0.084032 0.0
0.970067 0.086014 0.0
0.934500 0.086530 0.0
0.903515 0.083201 0.0
0.878568 0.074638 0.0
0.860531 0.060742 0.0
0.849584 0.042537 0.0
0.845276 0.021720 0.0
0.846694 0.000206 0.0
0.852636 -0.020061 0.0
0.861804 -0.037441 0.0
0.872954 -0.050731 0.0
0.884891 -0.059026 0.0
0.896435 -0.061615 0.0
0.906316 -0.056509 0.0
0.999995 -0.017116 0.0
1.000014 -0.052614 0.0
1.000285 -0.091666 0.0
1.001488 -0.137015 0.0
1.005256 -0.192282 0.0
1.015377 -0.262514 0.0
1.040567 -0.354865 0.0
1.100080 -0.474582 0.0
1.258209 -0.692564 0.0
1.367102 -0.420172 0.0
1.322919 -0.254434 0.0
1.258092 -0.174482 0.0
1.212638 -0.124606 0.0
1.190498 -0.087836 0.0
1.192156 -0.049118 0.0
1.206379 0.008326 0.0
1.216019 0.073068 0.0
1.214380 0.132642 0.0
1.201721 0.183287 0.0
1.178666 0.222834 0.0
1.145986 0.249759 0.0
1.104780 0.263035 0.0
1.056472 0.262243 0.0
1.002462 0.247900 0.0
0.943297 0.221924 0.0
0.877779 0.187552 0.0
0.804063 0.147666 0.0
0.724743 0.102755 0.0
0.651624 0.051744 0.0
0.599158 -0.008921 0.0
0.576949 -0.080096 0.0
0.586919 -0.148396 0.0
0.623694 -0.199753 0.0
0.681214 -0.223855 0.0
0.755747 -0.214402 0.0
0.844706 -0.169866 0.0
0.944437 -0.094856 0.0
1.042514 -0.006275 0.0
1.121830 0.072512 0.0
1.178517 0.133070 0.0
1.217777 0.179013 0.0
1.242809 0.212969 0.0
1.255668 0.236678 0.0
1.257881 0.251397 0.0
1.250721 0.258158 0.0
1.235331 0.257905 0.0
1.212798 0.251559 0.0
1.184162 0.240038 0.0
1.150339 0.224330 0.0
1.111875 0.205751 0.0
1.068561 0.186399 0.0
1.019322 0.169272 0.0
0.963129 0.157033 0.0
0.901073 0.149418 0.0
0.838058 0.141520 0.0
0.781938 0.125761 0.0
0.740034 0.096703 0.0
0.715830 0.054369 0.0
0.708419 0.003520 0.0
0.714039 -0.049198 0.0
0.728387 -0.098093 0.0
0.748342 -0.139964 0.0
0.772121 -0.173380 0.0
0.798895 -0.197765 0.0
0.828501 -0.212769 0.0
0.861225 -0.217935 0.0
0.897547 -0.212651 0.0
0.937843 -0.196357 0.0
0.982102 -0.168927 0.0
1.029719 -0.131095 0.0
1.079369 -0.084777 0.0
1.128721 -0.033421 0.0
1.172985 0.016529 0.0
1.207651 0.059372 0.0
1.231540 0.093575 0.0
1.244956 0.118950 0.0
1.248658 0.135874 0.0
1.243636 0.145149 0.0
1.230959 0.147934 0.0
1.211674 0.145704 0.0
1.186739 0.140236 0.0
1.157015 0.133526 0.0
1.123330 0.127548 0.0
1.086612 0.123772 0.0
1.048045 0.122599 0.0
1.009167 0.123012 0.0
0.971825 0.122773 0.0
0.937959 0.119204 0.0
0.909277 0.110194 0.0
0.886952 0.094917 0.0
0.871477 0.073975 0.0
0.862693 0.049035 0.0
0.859945 0.022278 0.0
0.862243 -0.004067 0.0
0.868396 -0.027882 0.0
0.877171 -0.047563 0.0
0.887388 -0.061977 0.0
0.897958 -0.070287 0.0
0.907913 -0.071853 0.0
0.916353 -0.064593 0.0
0.999364 -0.016475 0.0
0.996771 -0.050681 0.0
0.991407 -0.088506 0.0
0.982987 -0.132957 0.0
0.971321 -0.188442 0.0
0.957011 -0.262165 0.0
0.943796 -0.367188 0.0
0.947211 -0.525187 0.0
1.052120 -0.904996 0.0
1.051115 -0.206284 0.0
0.857183 -0.108928 0.0
0.712080 -0.098121 0.0
0.636376 -0.079810 0.0
0.602074 -0.076189 0.0
0.613439 -0.073788 0.0
0.666463 -0.034250 0.0
0.729141 0.043326 0.0
0.775406 0.117757 0.0
0.803570 0.182668 0.0
0.813549 0.236529 0.0
0.804792 0.277500 0.0
0.777018 0.304272 0.0
0.729852 0.316479 0.0
0.662643 0.314883 0.0
0.575916 0.300833 0.0
0.475426 0.274650 0.0
0.376123 0.233587 0.0
0.299201 0.173076 0.0
0.260224 0.093519 0.0
0.261682 0.000311 0.0
0.292180 -0.097616 0.0
0.336942 -0.185609 0.0
0.389860 -0.252233 0.0
0.450994 -0.290028 0.0
0.522253 -0.294022 0.0
0.605328 -0.262279 0.0
0.700483 -0.197329 0.0
0.805686 -0.107082 0.0
0.909971 -0.010282 0.0
0.996804 0.072344 0.0
1.061728 0.135555 0.0
1.109132 0.183990 0.0
1.141556 0.220375 0.0
1.160688 0.246355 0.0
1.167926 0.263122 0.0
1.164557 0.271699 0.0
1.151782 0.273073 0.0
1.130657 0.268286 0.0
1.101920 0.258642 0.0
1.065727 0.246095 0.0
1.021577 0.233519 0.0
0.969016 0.223951 0.0
0.909374 0.218189 0.0
0.847415 0.212278 0.0
0.790902 0.198188 0.0
0.747474 0.168640 0.0
0.721166 0.122036 0.0
0.711458 0.062949 0.0
0.714974 -0.001164 0.0
0.727503 -0.062663 0.0
0.745398 -0.116871 0.0
0.766167 -0.161910 0.0
0.788282 -0.197328 0.0
0.810989 -0.223297 0.0
0.834217 -0.240071 0.0
0.858486 -0.247625 0.0
0.884714 -0.245511 0.0
0.913908 -0.232987 0.0
0.946785 -0.209434 0.0
0.983478 -0.174898 0.0
1.023393 -0.130537 0.0
1.065202 -0.078823 0.0
1.106614 -0.023745 0.0
1.143481 0.028113 0.0
1.172314 0.072113 0.0
1.192157 0.107152 0.0
1.202992 0.133135 0.0
1.205267 0.150635 0.0
1.199665 0.160728 0.0
1.186952 0.164908 0.0
1.167913 0.165005 0.0
1.143354 0.163040 0.0
1.114183 0.160891 0.0
1.081539 0.159792 0.0
1.046895 0.159790 0.0
1.012061 0.159533 0.0
0.979019 0.156637 0.0
0.949628 0.148596 0.0
0.925329 0.133784 0.0
0.906953 0.112028 0.0
0.894721 0.084571 0.0
0.888361 0.053584 0.0
0.887239 0.021598 0.0
0.890460 -0.008905 0.0
0.896938 -0.035675 0.0
0.905515 -0.057122 0.0
0.915070 -0.072191 0.0
0.924599 -0.080173 0.0
0.933283 -0.080606 0.0
0.940441 -0.071439 0.0
0.998758 -0.014597 0.0
0.993647 -0.044854 0.0
0.982789 -0.078112 0.0
0.964731 -0.116873 0.0
0.936760 -0.164889 0.0
0.893895 -0.228542 0.0
0.826413 -0.320113 0.0
0.715437 -0.464702 0.0
0.322989 -0.787286 0.0
-0.477774 0.286716 0.0
-0.477774 0.000000 0.0
-0.036072 -0.025004 0.0
-0.056409 -0.067953 0.0
-0.001989 -0.108163 0.0
0.082562 -0.137730 0.0
0.173175 -0.113944 0.0
0.264469 -0.030953 0.0
0.342599 0.067640 0.0
0.394064 0.153156 0.0
0.422064 0.228063 0.0
0.425887 0.290900 0.0
0.404474 0.340059 0.0
0.358004 0.374329 0.0
0.290060 0.392186 0.0
0.210338 0.389979 0.0
0.134966 0.361366 0.0
0.083162 0.297978 0.0
0.068307 0.200461 0.0
0.087876 0.085543 0.0
0.128673 -0.033968 0.0
0.177733 -0.142895 0.0
0.227535 -0.234894 0.0
0.276847 -0.305177 0.0
0.327847 -0.349219 0.0
0.384619 -0.362862 0.0
0.451378 -0.343272 0.0
0.530690 -0.290803 0.0
0.622389 -0.210510 0.0
0.723341 -0.112091 0.0
0.823206 -0.012545 0.0
0.907538 0.071189 0.0
0.972087 0.136403 0.0
1.020168 0.187456 0.0
1.053658 0.226651 0.0
1.073876 0.255369 0.0
1.081981 0.274715 0.0
1.079029 0.285785 0.0
1.065857 0.289870 0.0
1.042910 0.288742 0.0
1.010161 0.284937 0.0
0.967583 0.281406 0.0
0.916454 0.279753 0.0
0.860909 0.277575 0.0
0.808075 0.267685 0.0
0.765727 0.241643 0.0
0.738839 0.195500 0.0
0.727977 0.132346 0.0
0.730490 0.059833 0.0
0.742580 -0.013655 0.0
0.760505 -0.080626 0.0
0.781275 -0.137574 0.0
0.802815 -0.183516 0.0
0.823694 -0.218717 0.0
0.843094 -0.244015 0.0
0.860846 -0.260333 0.0
0.877469 -0.268255 0.0
0.894097 -0.267738 0.0
0.912223 -0.258080 0.0
0.933282 -0.238277 0.0
0.958196 -0.207664 0.0
0.987092 -0.166582 0.0
1.019254 -0.116749 0.0
1.053257 -0.061234 0.0
1.086645 -0.004654 0.0
1.115973 0.046718 0.0
1.138741 0.089934 0.0
1.154098 0.124162 0.0
1.161874 0.149558 0.0
1.162287 0.166994 0.0
1.155769 0.177872 0.0
1.142887 0.183962 0.0
1.124351 0.187178 0.0
1.101095 0.189180 0.0
1.074374 0.190869 0.0
1.045797 0.191933 0.0
1.017230 0.190790 0.0
0.990548 0.185103 0.0
0.967342 0.172727 0.0
0.948694 0.152601 0.0
0.935132 0.125148 0.0
0.926723 0.092091 0.0
0.923203 0.055944 0.0
0.924062 0.019500 0.0
0.928536 -0.014503 0.0
0.935638 -0.043657 0.0
0.944286 -0.066365 0.0
0.953436 -0.081653 0.0
0.962174 -0.088976 0.0
0.969799 -0.088112 0.0
0.975760 -0.077054 0.0
0.998308 -0.011663 0.0
0.991336 -0.035705 0.0
0.976477 -0.061544 0.0
0.951563 -0.090469 0.0
0.912408 -0.124166 0.0
0.850929 -0.164922 0.0
0.750374 -0.215697 0.0
0.570889 -0.278657 0.0
0.227152 -0.340953 0.0
0.000000 0.286716 0.0
-0.000000 -0.000000 0.0
0.000000 0.000000 0.0
-0.042043 -0.041844 0.0
-0.087347 -0.143588 0.0
-0.081609 -0.192595 0.0
-0.060228 -0.171072 0.0
-0.027667 -0.097680 0.0
0.018518 0.010052 0.0
0.063438 0.114358 0.0
0.092062 0.210236 0.0
0.100888 0.296077 0.0
0.088720 0.368463 0.0
0.058464 0.422652 0.0
0.018488 0.451783 0.0
-0.018400 0.446992 0.0
-0.039434 0.400760 0.0
-0.031258 0.302212 0.0
0.008980 0.170844 0.0
0.067811 0.036761 0.0
0.129409 -0.087580 0.0
0.185184 -0.194118 0.0
0.233234 -0.281523 0.0
0.273648 -0.348274 0.0
0.309078 -0.392554 0.0
0.344638 -0.411859 0.0
0.386796 -0.403191 0.0
0.441205 -0.364606 0.0
0.510383 -0.297583 0.0
0.592739 -0.208326 0.0
0.683364 -0.106801 0.0
0.772134 -0.007658 0.0
0.847362 0.075473 0.0
0.905760 0.141906 0.0
0.949420 0.195052 0.0
0.979538 0.236633 0.0
0.997010 0.267874 0.0
1.002559 0.290029 0.0
0.996676 0.304681 0.0
0.979571 0.313984 0.0
0.951465 0.320550 0.0
0.913498 0.326338 0.0
0.869021 0.330426 0.0
0.824140 0.327328 0.0
0.786272 0.308633 0.0
0.761150 0.268165 0.0
0.750660 0.206356 0.0
0.753241 0.129772 0.0
0.765847 0.047289 0.0
0.785021 -0.032375 0.0
0.807480 -0.102289 0.0
0.830726 -0.159927 0.0
0.852943 -0.204918 0.0
0.872803 -0.238055 0.0
0.889463 -0.260737 0.0
0.902633 -0.274533 0.0
0.912687 -0.280732 0.0
0.920724 -0.279926 0.0
0.928468 -0.271762 0.0
0.937912 -0.255096 0.0
0.950778 -0.228626 0.0
0.968029 -0.191766 0.0
0.989633 -0.145332 0.0
1.014673 -0.091693 0.0
1.041558 -0.034468 0.0
1.067654 0.021110 0.0
1.090171 0.070258 0.0
1.107469 0.111184 0.0
1.118762 0.143468 0.0
1.123790 0.167643 0.0
1.122632 0.184900 0.0
1.115614 0.196834 0.0
1.103325 0.205130 0.0
1.086674 0.211135 0.0
1.066936 0.215373 0.0
1.045714 0.217228 0.0
1.024753 0.215023 0.0
1.005671 0.206634 0.0
0.989697 0.190377 0.0
0.977559 0.165738 0.0
0.969534 0.133598 0.0
0.965594 0.095991 0.0
0.965507 0.055651 0.0
0.968873 0.015568 0.0
0.975019 -0.021190 0.0
0.983015 -0.052067 0.0
0.991884 -0.075471 0.0
1.000704 -0.090518 0.0
1.008690 -0.096834 0.0
1.015271 -0.094459 0.0
1.019999 -0.081395 0.0
0.998100 -0.008071 0.0
0.990299 -0.024525 0.0
0.973787 -0.041353 0.0
0.946485 -0.058445 0.0
0.904656 -0.075206 0.0
0.842044 -0.089791 0.0
0.749158 -0.097387 0.0
0.614563 -0.082887 0.0
0.434158 -0.007045 0.0
0.166469 0.148616 0.0
0.000000 0.000000 0.0
-0.000000 -0.000000 0.0
0.000000 0.000000 0.0
-0.068287 -0.070164 0.0
-0.150866 -0.187302 0.0
-0.169548 -0.179064 0.0
-0.175882 -0.115916 0.0
-0.168664 -0.025116 0.0
-0.145322 0.081265 0.0
-0.119206 0.188590 0.0
-0.100635 0.290327 0.0
-0.092689 0.378435 0.0
-0.092835 0.443082 0.0
-0.094085 0.472578 0.0
-0.085603 0.454602 0.0
-0.051584 0.380166 0.0
0.010765 0.252280 0.0
0.086530 0.104772 0.0
0.162546 -0.032013 0.0
0.230835 -0.148693 0.0
0.287567 -0.245512 0.0
0.331633 -0.322245 0.0
0.362935 -0.379268 0.0
0.383164 -0.417219 0.0
0.396538 -0.436128 0.0
0.409966 -0.434509 0.0
0.431757 -0.409490 0.0
0.468709 -0.358828 0.0
0.523130 -0.283857 0.0
0.592041 -0.190806 0.0
0.668958 -0.089341 0.0
0.743579 0.007308 0.0
0.806629 0.088623 0.0
0.855931 0.155374 0.0
0.892362 0.209761 0.0
0.916450 0.253188 0.0
0.928530 0.287086 0.0
0.928798 0.313239 0.0
0.917519 0.333809 0.0
0.895640 0.350711 0.0
0.865753 0.364031 0.0
0.832775 0.370189 0.0
0.803263 0.361959 0.0
0.783161 0.331972 0.0
0.775472 0.277636 0.0
0.779845 0.203001 0.0
0.794036 0.116355 0.0
0.815395 0.026741 0.0
0.840747 -0.056353 0.0
0.866977 -0.127000 0.0
0.891959 -0.183444 0.0
0.914154 -0.225814 0.0
0.932469 -0.255334 0.0
0.946199 -0.273848 0.0
0.955057 -0.283450 0.0
0.959279 -0.286090 0.0
0.959771 -0.283098 0.0
0.958186 -0.274750 0.0
0.956763 -0.260128 0.0
0.957848 -0.237546 0.0
0.963262 -0.205509 0.0
0.973802 -0.163735 0.0
0.989152 -0.113680 0.0
1.008129 -0.058345 0.0
1.028861 -0.001841 0.0
1.048876 0.050677 0.0