# vtk DataFile Version 3.0
Scalar Field
ASCII
DATASET RECTILINEAR_GRID
DIMENSIONS 100 26 1
X_COORDINATES 100 double
0.050000 0.150000 0.250000 0.350000 0.450000 0.550000 0.650000 0.750000 0.850000 0.950000 1.050000 1.150000 1.250000 1.350000 1.450000 1.550000 1.650000 1.750000 1.850000 1.950000 2.050000 2.150000 2.250000 2.350000 2.450000 2.550000 2.650000 2.750000 2.850000 2.950000 3.050000 3.150000 3.250000 3.350000 3.450000 3.550000 3.650000 3.750000 3.850000 3.950000 4.050000 4.150000 4.250000 4.350000 4.450000 4.550000 4.650000 4.750000 4.850000 4.950000 5.050000 5.150000 5.250000 5.350000 5.450000 5.550000 5.650000 5.750000 5.850000 5.950000 6.050000 6.150000 6.250000 6.350000 6.450000 6.550000 6.650000 6.750000 6.850000 6.950000 7.050000 7.150000 7.250000 7.350000 7.450000 7.550000 7.650000 7.750000 7.850000 7.950000 8.050000 8.150000 8.250000 8.350000 8.450000 8.550000 8.650000 8.750000 8.850000 8.950000 9.050000 9.150000 9.250000 9.350000 9.450000 9.550000 9.650000 9.750000 9.850000 9.950000 
Y_COORDINATES 26 double
0.050000 0.150000 0.250000 0.350000 0.450000 0.550000 0.650000 0.750000 0.850000 0.950000 1.050000 1.150000 1.250000 1.350000 1.450000 1.550000 1.650000 1.750000 1.850000 1.950000 2.050000 2.150000 2.250000 2.350000 2.450000 2.550000 
Z_COORDINATES 1 double
0.0
POINT_DATA 2600
SCALARS Skalarfeld double 1
LOOKUP_TABLE default
0.301913
0.286869
0.272321
0.255214
0.234427
0.209456
0.180186
0.146863
0.110138
0.071093
0.031144
-0.008177
-0.045489
-0.079725
-0.110190
-0.136528
-0.158592
-0.175808
-0.188214
-0.195839
-0.198814
-0.197424
-0.192144
-0.183632
-0.172678
-0.160119
-0.146743
-0.133191
-0.119890
-0.107026
-0.094551
-0.082242
-0.069788
-0.056899
-0.043382
-0.029295
-0.013509
0.002901
0.018343
0.031716
0.042313
0.049771
0.054007
0.055198
0.054242
0.050948
0.045190
0.036857
0.025907
0.012551
-0.002437
-0.017381
-0.029825
-0.037628
-0.040464
-0.039316
-0.035843
-0.031186
-0.025401
-0.019125
-0.012921
-0.007215
-0.002285
0.001717
0.004745
0.006808
0.007929
0.008298
0.007841
0.006696
0.005044
0.003117
0.001184
-0.000503
-0.001807
-0.002809
-0.003842
-0.005419
-0.008053
-0.012064
-0.017453
-0.023911
-0.030941
-0.038034
-0.044835
-0.051206
-0.057196
-0.062931
-0.068496
-0.073990
-0.079394
-0.084719
-0.090134
-0.095845
-0.102085
-0.109058
-0.116897
-0.125640
-0.135025
-0.145319
0.292664
0.286432
0.274877
0.258994
0.238616
0.213501
0.183568
0.149068
0.110735
0.069847
0.028136
-0.012604
-0.050873
-0.085634
-0.116281
-0.142494
-0.164062
-0.181261
-0.193782
-0.201526
-0.204561
-0.203112
-0.197617
-0.188726
-0.177248
-0.164059
-0.149988
-0.135717
-0.121709
-0.108175
-0.095084
-0.082223
-0.069286
-0.055963
-0.041923
-0.026657
-0.010699
0.005065
0.019725
0.032425
0.042524
0.049686
0.054037
0.055753
0.054551
0.050950
0.044888
0.036255
0.024969
0.011187
-0.004296
-0.019603
-0.031980
-0.039179
-0.040962
-0.039459
-0.036407
-0.032084
-0.026056
-0.019638
-0.013310
-0.007506
-0.002487
0.001593
0.004693
0.006877
0.008249
0.008618
0.008016
0.006781
0.005070
0.003122
0.001225
-0.000351
-0.001466
-0.002218
-0.002986
-0.004347
-0.006890
-0.010985
-0.016618
-0.023414
-0.030766
-0.038075
-0.044951
-0.051294
-0.057218
-0.062930
-0.068422
-0.073787
-0.079048
-0.084281
-0.089637
-0.095323
-0.101576
-0.108608
-0.116537
-0.125353
-0.134744
-0.145629
0.294950
0.291087
0.281463
0.266672
0.246652
0.221112
0.189841
0.152996
0.111398
0.066711
0.021397
-0.022140
-0.062186
-0.097817
-0.128719
-0.154918
-0.176556
-0.193785
-0.206712
-0.214902
-0.218256
-0.216834
-0.210953
-0.201220
-0.188466
-0.173633
-0.157634
-0.141244
-0.125023
-0.109276
-0.094073
-0.079297
-0.064720
-0.050077
-0.035102
-0.019566
-0.004264
0.010284
0.023493
0.034708
0.043360
0.049128
0.052048
0.052476
0.050119
0.045299
0.038523
0.029745
0.018925
0.006278
-0.007373
-0.020402
-0.030772
-0.037114
-0.039504
-0.038940
-0.035976
-0.030763
-0.025054
-0.019227
-0.013146
-0.007545
-0.002674
0.001273
0.004220
0.006173
0.007194
0.007363
0.006891
0.005814
0.004427
0.002988
0.001705
0.000716
0.000014
-0.000571
-0.001405
-0.002971
-0.005766
-0.010107
-0.015918
-0.022811
-0.030179
-0.037443
-0.044260
-0.050581
-0.056515
-0.062141
-0.067645
-0.073049
-0.078226
-0.083337
-0.088640
-0.094344
-0.100722
-0.107995
-0.116261
-0.125386
-0.135223
-0.145939
0.304417
0.301341
0.292813
0.278839
0.259032
0.232751
0.199386
0.158772
0.111758
0.060605
0.009395
-0.038332
-0.080654
-0.117045
-0.147800
-0.173548
-0.194896
-0.212200
-0.225526
-0.234402
-0.238283
-0.236928
-0.230456
-0.219418
-0.204703
-0.187372
-0.168480
-0.148944
-0.129461
-0.110481
-0.092229
-0.074744
-0.057950
-0.041718
-0.025920
-0.010502
0.004235
0.017750
0.029562
0.039054
0.045661
0.049088
0.049420
0.047073
0.042608
0.036024
0.028134
0.019240
0.009376
-0.001247
-0.012017
-0.021858
-0.029560
-0.034339
-0.036141
-0.035368
-0.032478
-0.027994
-0.022661
-0.016685
-0.011106
-0.006109
-0.001702
0.001794
0.004272
0.005709
0.006179
0.005861
0.005034
0.003961
0.002918
0.002063
0.001467
0.001099
0.000850
0.000496
-0.000297
-0.001961
-0.004874
-0.009272
-0.014922
-0.021547
-0.028631
-0.035715
-0.042512
-0.048939
-0.055021
-0.060781
-0.066236
-0.071322
-0.076330
-0.081505
-0.086905
-0.092705
-0.099318
-0.107010
-0.115949
-0.126074
-0.136997
-0.149339
0.319576
0.316920
0.309246
0.296116
0.276646
0.249549
0.213394
0.167221
0.111616
0.049588
-0.010822
-0.064101
-0.108575
-0.144829
-0.174336
-0.198699
-0.219212
-0.236542
-0.250529
-0.260509
-0.265288
-0.264067
-0.256661
-0.243617
-0.226017
-0.205178
-0.182401
-0.158807
-0.135269
-0.112395
-0.090565
-0.069975
-0.050694
-0.032714
-0.015982
-0.000432
0.013971
0.026842
0.037544
0.045346
0.049584
0.050018
0.046894
0.040858
0.032842
0.023947
0.014732
0.005724
-0.002991
-0.011334
-0.019016
-0.025505
-0.030203
-0.032723
-0.033029
-0.031353
-0.028059
-0.023593
-0.018458
-0.013077
-0.007960
-0.003255
0.000577
0.003466
0.005303
0.006042
0.005762
0.004725
0.003317
0.001929
0.000868
0.000247
0.000071
0.000201
0.000401
0.000366
-0.000250
-0.001791
-0.004552
-0.008638
-0.014106
-0.020571
-0.027404
-0.034261
-0.040861
-0.047098
-0.052965
-0.058489
-0.063711
-0.068697
-0.073599
-0.078530
-0.083772
-0.089747
-0.096746
-0.105016
-0.114894
-0.126482
-0.139596
-0.157107
0.339637
0.337407
0.330793
0.318997
0.300533
0.273132
0.233873
0.179962
0.110769
0.029585
-0.044670
-0.103914
-0.148719
-0.182376
-0.208349
-0.229634
-0.248472
-0.265985
-0.281725
-0.293905
-0.300576
-0.299883
-0.291191
-0.275207
-0.253478
-0.227824
-0.199954
-0.171281
-0.142874
-0.115489
-0.089629
-0.065604
-0.043587
-0.023653
-0.005797
0.010075
0.024172
0.036694
0.046624
0.053000
0.054938
0.052351
0.045716
0.035858
0.023890
0.011204
-0.000650
-0.009990
-0.017651
-0.023784
-0.028484
-0.031715
-0.033346
-0.033295
-0.031621
-0.028529
-0.024327
-0.019383
-0.014097
-0.008839
-0.003960
0.000288
0.003628
0.005914
0.006995
0.006837
0.005581
0.003544
0.001200
-0.000880
-0.002304
-0.003088
-0.003157
-0.002684
-0.001996
-0.001499
-0.001611
-0.002717
-0.005111
-0.008923
-0.014088
-0.020219
-0.026907
-0.033639
-0.039994
-0.045866
-0.051253
-0.056219
-0.060868
-0.065336
-0.069793
-0.074442
-0.079573
-0.085545
-0.092713
-0.101584
-0.112471
-0.125672
-0.141420
-0.165738
0.363801
0.362170
0.357183
0.347759
0.331799
0.305744
0.264191
0.200340
0.109152
-0.008427
-0.101523
-0.163104
-0.202650
-0.228772
-0.247366
-0.262880
-0.278663
-0.296644
-0.316418
-0.333839
-0.344586
-0.345508
-0.335310
-0.315280
-0.287941
-0.255979
-0.221701
-0.186877
-0.152775
-0.120265
-0.089923
-0.062119
-0.037088
-0.014974
0.004145
0.020268
0.033544
0.045058
0.054307
0.059654
0.059633
0.054612
0.045469
0.033138
0.018601
0.003061
-0.011985
-0.024763
-0.032169
-0.036906
-0.039287
-0.039781
-0.038672
-0.036151
-0.032410
-0.027691
-0.022285
-0.016520
-0.010736
-0.005251
-0.000350
0.003733
0.006774
0.008570
0.008930
0.007779
0.005267
0.001815
-0.001953
-0.005396
-0.007883
-0.009103
-0.009158
-0.008301
-0.006979
-0.005708
-0.004997
-0.005293
-0.006934
-0.010091
-0.014725
-0.020548
-0.027115
-0.033694
-0.039839
-0.045357
-0.050211
-0.054490
-0.058356
-0.062021
-0.065732
-0.069766
-0.074448
-0.080165
-0.087354
-0.096526
-0.108166
-0.122766
-0.140862
-0.170590
0.390949
0.390180
0.387641
0.382159
0.371256
0.350116
0.309860
0.235644
0.107148
-0.085433
-0.195341
-0.243735
-0.266676
-0.278461
-0.285168
-0.291653
-0.302127
-0.319739
-0.345444
-0.374600
-0.393988
-0.398809
-0.387303
-0.362316
-0.328152
-0.288770
-0.247204
-0.205581
-0.165324
-0.127369
-0.092317
-0.060562
-0.032374
-0.007972
0.012406
0.028485
0.040170
0.047822
0.054111
0.058777
0.056801
0.050085
0.040332
0.028306
0.014362
-0.000950
-0.016566
-0.030908
-0.042361
-0.047272
-0.048765
-0.047735
-0.044821
-0.040470
-0.035039
-0.028859
-0.022259
-0.015573
-0.009128
-0.003221
0.001885
0.005958
0.008755
0.010008
0.009461
0.007011
0.002866
-0.002391
-0.007900
-0.012773
-0.016364
-0.018066
-0.017945
-0.016487
-0.014301
-0.012017
-0.010226
-0.009431
-0.010011
-0.012182
-0.015960
-0.021126
-0.027252
-0.033737
-0.039882
-0.045130
-0.049550
-0.053208
-0.056293
-0.059079
-0.061892
-0.065090
-0.069064
-0.074247
-0.081122
-0.090228
-0.102130
-0.117432
-0.136831
-0.169360
0.419476
0.419837
0.420612
0.420892
0.418486
0.408343
0.378727
0.302367
0.110884
-0.253588
-0.338297
-0.332768
-0.326474
-0.320842
-0.314177
-0.310214
-0.313356
-0.327589
-0.356409
-0.398090
-0.437244
-0.449634
-0.438101
-0.408554
-0.367942
-0.321716
-0.273568
-0.225870
-0.180137
-0.137341
-0.098120
-0.062910
-0.032049
-0.005887
0.015078
0.030119
0.038684
0.041630
0.041233
0.039567
0.036213
0.031016
0.024348
0.016228
0.006411
-0.005176
-0.018077
-0.031166
-0.042838
-0.051426
-0.053994
-0.053022
-0.049707
-0.044652
-0.038367
-0.031302
-0.023874
-0.016476
-0.009471
-0.003185
0.002095
0.006095
0.008513
0.009005
0.007262
0.003198
-0.002852
-0.010058
-0.017270
-0.023363
-0.027593
-0.029312
-0.028664
-0.026321
-0.023035
-0.019544
-0.016503
-0.014453
-0.013801
-0.014792
-0.017488
-0.021735
-0.027163
-0.033219
-0.039267
-0.044559
-0.048667
-0.051870
-0.054321
-0.056318
-0.058248
-0.060539
-0.063646
-0.068047
-0.074257
-0.082826
-0.094342
-0.109433
-0.128810
-0.161361
0.447288
0.448931
0.453563
0.460946
0.470198
0.478434
0.476450
0.433394
0.210350
-0.570876
-0.505925
-0.386765
-0.359374
-0.346105
-0.332164
-0.322485
-0.321875
-0.332412
-0.358313
-0.400596
-0.449676
-0.480205
-0.471194
-0.439720
-0.395809
-0.346128
-0.294659
-0.243818
-0.195159
-0.149739
-0.108327
-0.071550
-0.040055
-0.014692
0.003460
0.013633
0.016330
0.013829
0.009264
0.004336
0.001985
0.000693
-0.000510
-0.002440
-0.005889
-0.011448
-0.019225
-0.028646
-0.038470
-0.047075
-0.052957
-0.053686
-0.051373
-0.046892
-0.040829
-0.033739
-0.026143
-0.018525
-0.011331
-0.004954
0.000247
0.003926
0.005700
0.005154
0.001963
-0.003881
-0.011838
-0.020796
-0.029336
-0.036179
-0.040549
-0.041762
-0.040214
-0.036703
-0.032108
-0.027260
-0.022869
-0.019498
-0.017559
-0.017308
-0.018830
-0.022023
-0.026575
-0.031989
-0.037641
-0.042899
-0.046955
-0.049873
-0.051878
-0.053254
-0.054411
-0.055825
-0.057994
-0.061429
-0.066655
-0.074214
-0.084670
-0.098609
-0.116654
-0.146811
0.472017
0.474857
0.483142
0.497475
0.518865
0.548624
0.587702
0.633132
0.719156
0.074140
-0.438255
-0.370585
-0.364731
-0.358018
-0.350578
-0.344442
-0.343710
-0.350314
-0.368789
-0.401392
-0.441735
-0.472588
-0.475141
-0.444362
-0.401295
-0.353017
-0.303095
-0.253665
-0.206239
-0.162001
-0.121970
-0.087155
-0.058725
-0.038029
-0.026152
-0.022925
-0.026145
-0.032103
-0.037427
-0.039751
-0.037737
-0.033312
-0.028007
-0.023080
-0.019629
-0.018534
-0.020306
-0.024869
-0.031451
-0.038697
-0.045015
-0.049007
-0.048711
-0.045840
-0.041000
-0.034786
-0.027794
-0.020602
-0.013752
-0.007733
-0.002995
0.000024
0.000855
-0.000968
-0.005749
-0.013363
-0.023035
-0.033390
-0.042824
-0.049974
-0.054056
-0.054354
-0.051582
-0.046657
-0.040576
-0.034260
-0.028468
-0.023776
-0.020582
-0.019127
-0.019500
-0.021623
-0.025234
-0.029887
-0.034991
-0.039903
-0.044041
-0.046766
-0.048472
-0.049382
-0.049897
-0.050502
-0.051714
-0.054052
-0.058032
-0.064165
-0.072959
-0.084911
-0.100505
-0.126387
0.491455
0.495134
0.505966
0.525084
0.554650
0.598410
0.662860
0.758815
0.891056
0.911077
0.000000
-0.368459
-0.366334
-0.368421
-0.370337
-0.372967
-0.376383
-0.382226
-0.392936
-0.409219
-0.428851
-0.440963
-0.440354
-0.418319
-0.379428
-0.336556
-0.292571
-0.249064
-0.207368
-0.168730
-0.134409
-0.105809
-0.084543
-0.072088
-0.068777
-0.072712
-0.079951
-0.086216
-0.088562
-0.084489
-0.075925
-0.064735
-0.052640
-0.041083
-0.031251
-0.024085
-0.020239
-0.019945
-0.022848
-0.027957
-0.033827
-0.038960
-0.041715
-0.040944
-0.037995
-0.033367
-0.027659
-0.021512
-0.015551
-0.010361
-0.006485
-0.004460
-0.004834
-0.008108
-0.014533
-0.023822
-0.034977
-0.046421
-0.056430
-0.063603
-0.067010
-0.066109
-0.061878
-0.055364
-0.047686
-0.039851
-0.032664
-0.026704
-0.022346
-0.019798
-0.019126
-0.020257
-0.022958
-0.026825
-0.031309
-0.035792
-0.039713
-0.042344
-0.043828
-0.044368
-0.044332
-0.044185
-0.044434
-0.045583
-0.048115
-0.052493
-0.059144
-0.068453
-0.080744
-0.100995
0.504055
0.508043
0.519762
0.540328
0.571720
0.616804
0.678886
0.759503
0.852309
0.931097
0.836594
0.000000
-0.372684
-0.379034
-0.390876
-0.406785
-0.421351
-0.431796
-0.433508
-0.427967
-0.418137
-0.403415
-0.383876
-0.360133
-0.330304
-0.294154
-0.258450
-0.223896
-0.191436
-0.162257
-0.137792
-0.119779
-0.110000
-0.109300
-0.116231
-0.126790
-0.136018
-0.140224
-0.135575
-0.123939
-0.107989
-0.089778
-0.071154
-0.053628
-0.038365
-0.026227
-0.017809
-0.013417
-0.012943
-0.015731
-0.020577
-0.025963
-0.030421
-0.032330
-0.031558
-0.028918
-0.024940
-0.020282
-0.015626
-0.011634
-0.008937
-0.008164
-0.009939
-0.014778
-0.022858
-0.033729
-0.046198
-0.058537
-0.068941
-0.076011
-0.078294
-0.076070
-0.070275
-0.062123
-0.052854
-0.043555
-0.035066
-0.027960
-0.022581
-0.019094
-0.017530
-0.017801
-0.019686
-0.022810
-0.026659
-0.030633
-0.034147
-0.036707
-0.037921
-0.038105
-0.037548
-0.036672
-0.035945
-0.035834
-0.036776
-0.039164
-0.043332
-0.049539
-0.057943
-0.071663
0.509248
0.513014
0.524005
0.542975
0.571149
0.610078
0.660751
0.721003
0.776937
0.790418
0.742091
0.617629
0.000000
-0.395933
-0.412832
-0.451351
-0.484041
-0.502794
-0.491362
-0.457365
-0.412527
-0.365816
-0.322799
-0.284484
-0.254082
-0.225627
-0.198464
-0.174053
-0.152925
-0.136280
-0.125720
-0.123033
-0.129336
-0.143595
-0.161820
-0.178227
-0.187652
-0.187146
-0.173974
-0.154614
-0.131478
-0.106803
-0.082488
-0.060013
-0.040454
-0.024531
-0.012697
-0.005179
-0.001952
-0.002595
-0.006182
-0.011343
-0.016554
-0.020494
-0.021952
-0.021387
-0.019291
-0.016314
-0.013168
-0.010570
-0.009230
-0.009862
-0.013152
-0.019616
-0.029341
-0.041718
-0.055390
-0.068499
-0.079146
-0.085861
-0.086958
-0.083323
-0.076008
-0.066347
-0.055669
-0.045115
-0.035537
-0.027493
-0.021291
-0.017051
-0.014766
-0.014325
-0.015508
-0.017964
-0.021204
-0.024647
-0.027717
-0.029945
-0.030885
-0.030685
-0.029589
-0.027966
-0.026236
-0.024815
-0.024076
-0.024334
-0.025818
-0.028654
-0.032833
-0.039491
0.507447
0.510649
0.519910
0.535588
0.558100
0.587438
0.622181
0.657055
0.678613
0.661372
0.587936
0.493167
0.314859
0.000000
-0.466107
-0.519383
-0.557020
-0.577939
-0.546275
-0.482822
-0.405145
-0.327423
-0.259325
-0.204929
-0.164967
-0.136377
-0.116840
-0.102380
-0.093540
-0.091893
-0.098952
-0.115673
-0.141234
-0.171827
-0.201022
-0.222041
-0.230206
-0.220379
-0.200312
-0.174228
-0.145141
-0.115424
-0.086916
-0.060964
-0.038474
-0.019997
-0.005820
0.003947
0.009340
0.010624
0.008452
0.003935
-0.001518
-0.006589
-0.009866
-0.011114
-0.010764
-0.009409
-0.007759
-0.006569
-0.006618
-0.008695
-0.013530
-0.021617
-0.032934
-0.046725
-0.061483
-0.075238
-0.085994
-0.092127
-0.091964
-0.087043
-0.078474
-0.067655
-0.055959
-0.044534
-0.034218
-0.025538
-0.018763
-0.013972
-0.011128
-0.010105
-0.010686
-0.012535
-0.015190
-0.018091
-0.020668
-0.022450
-0.023008
-0.022349
-0.020658
-0.018249
-0.015486
-0.012724
-0.010268
-0.008344
-0.007074
-0.006442
-0.006270
-0.005639
0.499695
0.502093
0.508931
0.520163
0.535475
0.553802
0.572423
0.585372
0.581398
0.542702
0.451130
0.296681
0.136550
-0.319221
-0.623380
-0.563946
-0.606395
-0.608653
-0.560485
-0.479248
-0.382866
-0.286336
-0.200494
-0.131924
-0.082184
-0.048240
-0.029610
-0.023062
-0.025767
-0.039961
-0.066093
-0.103043
-0.147242
-0.192206
-0.229835
-0.253249
-0.255231
-0.238251
-0.212411
-0.181547
-0.148689
-0.116119
-0.085486
-0.057909
-0.034080
-0.014365
0.001107
0.012344
0.019424
0.022514
0.022010
0.018696
0.013745
0.008470
0.003983
0.001336
0.000273
0.000259
0.000595
0.000502
-0.000855
-0.004319
-0.010640
-0.020258
-0.033034
-0.048063
-0.063718
-0.077942
-0.088734
-0.093658
-0.092535
-0.086731
-0.077422
-0.066025
-0.053895
-0.042140
-0.031551
-0.022609
-0.015540
-0.010398
-0.007130
-0.005609
-0.005635
-0.006895
-0.008954
-0.011275
-0.013298
-0.014547
-0.014619
-0.013412
-0.011061
-0.007824
-0.004009
0.000092
0.004244
0.008310
0.012284
0.016326
0.020790
0.028686
0.487475
0.488976
0.493165
0.499709
0.507835
0.515928
0.520862
0.517049
0.495355
0.442196
0.339418
0.161718
-0.144925
-0.774993
-0.682814
-0.585216
-0.587787
-0.569164
-0.514924
-0.433588
-0.338216
-0.241441
-0.153405
-0.080794
-0.025943
0.012648
0.036721
0.041818
0.031164
0.003369
-0.038982
-0.091883
-0.149267
-0.202874
-0.243692
-0.264432
-0.258009
-0.237754
-0.209288
-0.176730
-0.143043
-0.110294
-0.079865
-0.052628
-0.029072
-0.009409
0.006344
0.018289
0.026562
0.031298
0.032702
0.031218
0.027650
0.023074
0.018531
0.015088
0.013111
0.012106
0.011411
0.010247
0.007747
0.003039
-0.004607
-0.015552
-0.029527
-0.045497
-0.061731
-0.076086
-0.086377
-0.090125
-0.088557
-0.082487
-0.073148
-0.061917
-0.050066
-0.038614
-0.028271
-0.019456
-0.012364
-0.007036
-0.003428
-0.001436
-0.000889
-0.001514
-0.002909
-0.004567
-0.005945
-0.006566
-0.006057
-0.004223
-0.001158
0.002930
0.007787
0.013180
0.018943
0.025026
0.031535
0.038781
0.047305
0.062226
0.472448
0.473085
0.474761
0.476998
0.478823
0.478480
0.472990
0.457612
0.425278
0.366073
0.266604
0.108799
-0.131420
-0.440078
-0.510789
-0.509851
-0.503455
-0.479498
-0.433191
-0.366809
-0.288382
-0.207011
-0.130523
-0.064321
-0.010949
0.029091
0.056113
0.069978
0.056795
0.022268
-0.027699
-0.087007
-0.148076
-0.201910
-0.239783
-0.249643
-0.240895
-0.220278
-0.192713
-0.161916
-0.130502
-0.100212
-0.072153
-0.046980
-0.025044
-0.006482
0.008721
0.020692
0.029604
0.035619
0.038875
0.039585
0.038181
0.035349
0.031828
0.028734
0.026562
0.025048
0.023676
0.021717
0.018312
0.012604
0.003914
-0.008014
-0.022791
-0.039281
-0.055695
-0.069926
-0.079139
-0.082319
-0.080754
-0.075120
-0.066552
-0.056291
-0.045454
-0.034923
-0.025301
-0.016948
-0.010037
-0.004622
-0.000693
0.001806
0.002996
0.003106
0.002492
0.001622
0.001012
0.001125
0.002320
0.004848
0.008657
0.013587
0.019436
0.026025
0.033248
0.041133
0.049894
0.059990
0.072167
0.093667
0.456213
0.456094
0.455600
0.454222
0.450987
0.444265
0.431514
0.409022
0.371698
0.313041
0.225408
0.101290
-0.061186
-0.240367
-0.339130
-0.380499
-0.391314
-0.378352
-0.347129
-0.299948
-0.242175
-0.180128
-0.119575
-0.064845
-0.018522
0.018114
0.046878
0.057423
0.046029
0.014703
-0.031636
-0.086157
-0.140584
-0.185914
-0.211831
-0.216788
-0.208376
-0.190555
-0.167105
-0.141000
-0.114351
-0.088547
-0.064445
-0.042547
-0.023127
-0.006319
0.007847
0.019429
0.028555
0.035387
0.040077
0.042775
0.043691
0.043188
0.041803
0.040405
0.038878
0.037457
0.035869
0.033494
0.029535
0.023195
0.013886
0.001457
-0.013606
-0.030101
-0.046186
-0.059665
-0.067776
-0.071280
-0.070450
-0.066031
-0.059024
-0.050464
-0.041264
-0.032130
-0.023559
-0.015860
-0.009212
-0.003714
0.000582
0.003667
0.005601
0.006559
0.006852
0.006906
0.007193
0.008148
0.010139
0.013411
0.017964
0.023691
0.030441
0.038079
0.046550
0.055942
0.066557
0.078991
0.094207
0.121599
0.440175
0.439431
0.437172
0.432945
0.425898
0.414670
0.397262
0.370957
0.332347
0.277572
0.202992
0.106722
-0.007788
-0.126225
-0.212813
-0.264261
-0.287844
-0.288950
-0.272536
-0.242387
-0.202595
-0.157738
-0.112125
-0.069232
-0.031467
0.000036
0.022327
0.030309
0.021750
-0.002440
-0.038631
-0.080990
-0.122091
-0.153892
-0.170600
-0.174897
-0.169091
-0.156023
-0.138421
-0.118505
-0.097884
-0.077609
-0.058309
-0.040330
-0.023876
-0.009090
0.003912
0.015060
0.024353
0.031858
0.037686
0.041962
0.044780
0.046698
0.048133
0.048509
0.048264
0.047602
0.046367
0.044069
0.040027
0.033555
0.024173
0.011822
-0.002958
-0.018970
-0.034380
-0.046392
-0.054673
-0.058942
-0.059494
-0.056973
-0.052157
-0.045814
-0.038614
-0.031093
-0.023652
-0.016591
-0.010132
-0.004452
0.000307
0.004072
0.006828
0.008708
0.009986
0.011045
0.012310
0.014200
0.017046
0.021068
0.026327
0.032771
0.040294
0.048799
0.058261
0.068798
0.080764
0.094850
0.112218
0.144412
0.425494
0.424242
0.420584
0.414183
0.404381
0.390131
0.369960
0.341994
0.304087
0.254145
0.190753
0.114268
0.028546
-0.057392
-0.128208
-0.177891
-0.206865
-0.217516
-0.212724
-0.195750
-0.169906
-0.138681
-0.105397
-0.072896
-0.043391
-0.018584
-0.001516
0.005209
0.000185
-0.016041
-0.040860
-0.069889
-0.097632
-0.118664
-0.130963
-0.134990
-0.131894
-0.123467
-0.111567
-0.097777
-0.083254
-0.068713
-0.054497
-0.040714
-0.027400
-0.014656
-0.002687
0.008254
0.017962
0.026320
0.033324
0.039083
0.044024
0.047967
0.050927
0.052950
0.054196
0.054702
0.054284
0.052536
0.048907
0.042845
0.033974
0.022283
0.008324
-0.006856
-0.021065
-0.032990
-0.041839
-0.047363
-0.049810
-0.049637
-0.047333
-0.043359
-0.038150
-0.032104
-0.025575
-0.018907
-0.012404
-0.006372
-0.001067
0.003444
0.007036
0.009831
0.012078
0.014117
0.016351
0.019135
0.022758
0.027459
0.033334
0.040380
0.048526
0.057697
0.067870
0.079156
0.091892
0.106772
0.125039
0.160069
0.413112
0.411419
0.406609
0.398531
0.386753
0.370531
0.348834
0.320430
0.284044
0.238655
0.183961
0.121042
0.053130
-0.013980
-0.072497
-0.117602
-0.147820
-0.163705
-0.166823
-0.159286
-0.143687
-0.122728
-0.099030
-0.074941
-0.052453
-0.033407
-0.019924
-0.013644
-0.015413
-0.024830
-0.040124
-0.058349
-0.075928
-0.090046
-0.098863
-0.102244
-0.100860
-0.095872
-0.088563
-0.080057
-0.071134
-0.062156
-0.053095
-0.043661
-0.033556
-0.022723
-0.011462
-0.000299
0.010261
0.019810
0.028300
0.035782
0.042150
0.047490
0.051854
0.055294
0.057861
0.059512
0.060048
0.059120
0.056283
0.051089
0.043217
0.032600
0.019648
0.005320
-0.008849
-0.021331
-0.031253
-0.038373
-0.042911
-0.045142
-0.045224
-0.043309
-0.039655
-0.034602
-0.028503
-0.021856
-0.015004
-0.008379
-0.002414
0.002754
0.007133
0.010752
0.013809
0.016626
0.019563
0.022973
0.027160
0.032351
0.038675
0.046165
0.054776
0.064421
0.075043
0.086689
0.099597
0.114307
0.131869
0.165879
0.403850
0.401666
0.395755
0.386270
0.373013
0.355484
0.332982
0.304720
0.269984
0.228368
0.180092
0.126379
0.069784
0.014213
-0.035701
-0.076430
-0.106197
-0.124727
-0.132801
-0.131714
-0.123385
-0.109911
-0.093379
-0.075735
-0.058707
-0.043902
-0.032844
-0.026666
-0.025925
-0.030347
-0.038783
-0.049363
-0.060097
-0.068900
-0.074519
-0.076762
-0.076079
-0.073316
-0.069439
-0.065278
-0.061323
-0.057612
-0.053691
-0.048728
-0.041850
-0.032664
-0.021588
-0.009630
0.002350
0.013458
0.023522
0.032426
0.040178
0.046843
0.052481
0.057132
0.060804
0.063430
0.064851
0.064818
0.062976
0.058928
0.052339
0.042701
0.030030
0.015555
0.000581
-0.013182
-0.024493
-0.033087
-0.039345
-0.043508
-0.045377
-0.044759
-0.041865
-0.037194
-0.030875
-0.023810
-0.016734
-0.009799
-0.003243
0.002558
0.007545
0.011777
0.015430
0.018786
0.022163
0.025897
0.030312
0.035685
0.042201
0.049947
0.058881
0.068860
0.079736
0.091431
0.103998
0.117661
0.132969
0.159794
0.398628
0.395576
0.388299
0.377437
0.362963
0.344507
0.321561
0.293617
0.260301
0.221541
0.177785
0.130208
0.080848
0.032519
-0.011636
-0.048970
-0.077813
-0.097590
-0.108661
-0.111818
-0.108479
-0.100281
-0.088907
-0.075961
-0.062899
-0.051021
-0.041527
-0.035265
-0.032693
-0.033636
-0.037359
-0.042753
-0.048599
-0.053341
-0.056266
-0.057262
-0.056724
-0.055367
-0.053990
-0.053234
-0.053394
-0.054276
-0.055108
-0.054513
-0.050807
-0.042902
-0.031309
-0.017908
-0.004654
0.008129
0.019797
0.030158
0.039221
0.047066
0.053775
0.059390
0.063903
0.067258
0.069376
0.070175
0.069366
0.066520
0.060506
0.051232
0.038610
0.023075
0.006214
-0.009521
-0.022166
-0.031423
-0.038248
-0.043298
-0.046121
-0.045920
-0.042583
-0.037678
-0.031760
-0.024762
-0.017259
-0.009920
-0.003069
0.003068
0.008435
0.013089
0.017132
0.020805
0.024336
0.028037
0.032286
0.037480
0.043899
0.051743
0.060956
0.071237
0.082283
0.093848
0.105812
0.117993
0.130272
0.146644
0.399084
0.393600
0.384209
0.371825
0.356280
0.337120
0.313882
0.286212
0.253921
0.217109
0.176307
0.132607
0.087702
0.043790
0.003255
-0.031779
-0.059754
-0.080107
-0.092937
-0.098732
-0.098594
-0.093852
-0.085905
-0.076101
-0.065679
-0.055745
-0.047174
-0.040637
-0.036747
-0.035303
-0.035945
-0.038126
-0.040687
-0.042778
-0.043908
-0.044038
-0.043536
-0.043030
-0.043202
-0.044566
-0.047289
-0.051079
-0.055122
-0.057928
-0.057151
-0.050146
-0.038126
-0.024044
-0.009074
0.005275
0.018298
0.029795
0.039810
0.048465
0.055866
0.062058
0.067018
0.070683
0.073060
0.074466
0.073982
0.071170
0.065844
0.057111
0.044319
0.027571
0.008595
-0.009298
-0.023038
-0.031981
-0.037745
-0.041895
-0.044417
-0.044597
-0.042281
-0.037376
-0.031056
-0.023954
-0.016514
-0.009209
-0.002367
0.003822
0.009338
0.014269
0.018528
0.022249
0.025739
0.029336
0.033344
0.038074
0.044055
0.051909
0.061476
0.072105
0.083324
0.094716
0.105979
0.116980
0.127401
0.137095
0.409685
0.395368
0.382887
0.369162
0.352824
0.333173
0.309756
0.282247
0.250529
0.214762
0.175493
0.133741
0.091022
0.049243
0.010454
-0.023516
-0.051398
-0.072243
-0.085798
-0.092687
-0.093894
-0.090620
-0.084141
-0.075704
-0.066459
-0.057424
-0.049440
-0.043165
-0.038745
-0.036572
-0.036353
-0.037321
-0.038705
-0.039816
-0.040252
-0.039996
-0.039389
-0.039005
-0.039458
-0.041198
-0.044334
-0.048520
-0.052908
-0.056100
-0.056178
-0.051505
-0.040647
-0.025596
-0.009729
0.005305
0.018844
0.030735
0.041051
0.049932
0.057488
0.063763
0.068718
0.072264
0.074323
0.074607
0.073710
0.070934
0.065676
0.057216
0.044975
0.029003
0.010683
-0.007143
-0.021491
-0.031193
-0.037223
-0.041032
-0.043171
-0.043188
-0.040825
-0.036234
-0.030130
-0.023195
-0.015935
-0.008784
-0.002063
0.004037
0.009447
0.014191
0.018497
0.022390
0.026066
0.029816
0.033958
0.038820
0.044798
0.052240
0.061534
0.072245
0.083512
0.094793
0.105777
0.116318
0.126316
0.136135
