# vtk DataFile Version 3.0
Scalar Field
ASCII
DATASET RECTILINEAR_GRID
DIMENSIONS 100 26 1
X_COORDINATES 100 double
0.050000 0.150000 0.250000 0.350000 0.450000 0.550000 0.650000 0.750000 0.850000 0.950000 1.050000 1.150000 1.250000 1.350000 1.450000 1.550000 1.650000 1.750000 1.850000 1.950000 2.050000 2.150000 2.250000 2.350000 2.450000 2.550000 2.650000 2.750000 2.850000 2.950000 3.050000 3.150000 3.250000 3.350000 3.450000 3.550000 3.650000 3.750000 3.850000 3.950000 4.050000 4.150000 4.250000 4.350000 4.450000 4.550000 4.650000 4.750000 4.850000 4.950000 5.050000 5.150000 5.250000 5.350000 5.450000 5.550000 5.650000 5.750000 5.850000 5.950000 6.050000 6.150000 6.250000 6.350000 6.450000 6.550000 6.650000 6.750000 6.850000 6.950000 7.050000 7.150000 7.250000 7.350000 7.450000 7.550000 7.650000 7.750000 7.850000 7.950000 8.050000 8.150000 8.250000 8.350000 8.450000 8.550000 8.650000 8.750000 8.850000 8.950000 9.050000 9.150000 9.250000 9.350000 9.450000 9.550000 9.650000 9.750000 9.850000 9.950000 
Y_COORDINATES 26 double
0.050000 0.150000 0.250000 0.350000 0.450000 0.550000 0.650000 0.750000 0.850000 0.950000 1.050000 1.150000 1.250000 1.350000 1.450000 1.550000 1.650000 1.750000 1.850000 1.950000 2.050000 2.150000 2.250000 2.350000 2.450000 2.550000 
Z_COORDINATES 1 double
0.0
POINT_DATA 2600
SCALARS Skalarfeld double 1
LOOKUP_TABLE default
0.205345
0.201658
0.193981
0.181899
0.165142
0.143541
0.117091
0.086058
0.051090
0.013269
-0.025966
-0.065038
-0.102496
-0.137167
-0.168187
-0.194941
-0.216971
-0.233908
-0.245461
-0.251306
-0.251378
-0.245896
-0.235354
-0.220495
-0.202245
-0.181612
-0.159587
-0.137057
-0.114748
-0.093192
-0.072734
-0.053554
-0.035722
-0.019263
-0.004258
0.009283
0.021049
0.030437
0.036739
0.039339
0.037991
0.033068
0.025632
0.017240
0.009535
0.003759
0.000994
0.001253
0.004102
0.008842
0.014680
0.020860
0.026758
0.031927
0.036113
0.039253
0.041448
0.042930
0.044008
0.044996
0.046136
0.047509
0.049345
0.051504
0.053869
0.056359
0.058883
0.061276
0.063251
0.064371
0.064101
0.061918
0.057487
0.050850
0.042563
0.033691
0.025582
0.019438
0.016032
0.015225
0.016358
0.018413
0.020242
0.020854
0.019687
0.016754
0.012587
0.007949
0.003465
-0.000637
-0.004579
-0.008431
-0.012705
-0.017628
-0.023196
-0.029219
-0.035350
-0.041066
-0.045608
-0.046834
0.208388
0.205573
0.198155
0.186073
0.169104
0.147029
0.119778
0.087585
0.051144
0.011694
-0.029063
-0.069329
-0.107564
-0.142643
-0.173823
-0.200628
-0.222705
-0.239727
-0.251363
-0.257279
-0.257290
-0.251567
-0.240593
-0.225135
-0.206166
-0.184750
-0.161931
-0.138638
-0.115625
-0.093440
-0.072434
-0.052784
-0.034545
-0.017709
-0.002260
0.011549
0.023315
0.032477
0.038343
0.040322
0.038199
0.032387
0.024001
0.014698
0.006284
0.000256
-0.002635
-0.002269
0.000853
0.005960
0.012197
0.018769
0.025028
0.030519
0.034992
0.038388
0.040817
0.042518
0.043794
0.044953
0.046236
0.047814
0.049522
0.051402
0.053418
0.055535
0.057692
0.059747
0.061430
0.062316
0.061877
0.059597
0.055138
0.048512
0.040206
0.031194
0.022799
0.016432
0.012913
0.012013
0.013143
0.015301
0.017329
0.018233
0.017454
0.015009
0.011409
0.007365
0.003431
-0.000204
-0.003666
-0.007572
-0.012029
-0.017200
-0.023069
-0.029471
-0.036106
-0.042536
-0.048153
-0.052106
0.216584
0.214005
0.206753
0.194645
0.177330
0.154412
0.125628
0.091087
0.051544
0.008569
-0.035473
-0.078247
-0.118045
-0.153886
-0.185327
-0.212201
-0.234385
-0.251643
-0.263622
-0.269799
-0.269782
-0.263645
-0.251839
-0.235179
-0.214733
-0.191682
-0.167174
-0.142223
-0.117646
-0.094032
-0.071756
-0.051007
-0.031840
-0.014239
0.001797
0.016014
0.027913
0.036826
0.041972
0.042725
0.038908
0.031038
0.020418
0.008992
-0.001090
-0.008072
-0.011172
-0.010511
-0.006755
-0.000824
0.006315
0.013795
0.020933
0.027263
0.032537
0.036700
0.039857
0.042223
0.044055
0.045596
0.047026
0.048451
0.049876
0.051357
0.052864
0.054417
0.055998
0.057515
0.058735
0.059254
0.058554
0.056120
0.051600
0.044958
0.036593
0.027361
0.018477
0.011260
0.006906
0.005673
0.006647
0.008946
0.011477
0.013264
0.013714
0.012729
0.010624
0.007883
0.004875
0.001716
-0.001714
-0.005690
-0.010445
-0.016033
-0.022441
-0.029538
-0.037087
-0.044784
-0.052277
-0.060510
0.229484
0.227025
0.219955
0.207897
0.190235
0.166215
0.135164
0.096866
0.052086
0.002936
-0.046684
-0.093387
-0.135322
-0.171938
-0.203417
-0.230170
-0.252458
-0.270166
-0.282784
-0.289491
-0.289558
-0.282837
-0.269722
-0.251127
-0.228306
-0.202640
-0.175458
-0.147911
-0.120908
-0.095104
-0.070911
-0.048538
-0.028044
-0.009391
0.007477
0.022375
0.034594
0.043261
0.047401
0.046312
0.039867
0.028731
0.014483
-0.000482
-0.013401
-0.021852
-0.025018
-0.023684
-0.018748
-0.011379
-0.002728
0.006233
0.014773
0.022416
0.028916
0.034215
0.038402
0.041650
0.044166
0.046141
0.047726
0.049014
0.050047
0.050857
0.051715
0.052549
0.053366
0.054152
0.054750
0.054809
0.053838
0.051329
0.046909
0.040481
0.032335
0.023183
0.014089
0.006275
0.000805
-0.001161
-0.000572
0.001742
0.004781
0.007598
0.009527
0.010287
0.009932
0.008684
0.006743
0.004185
0.000948
-0.003120
-0.008174
-0.014280
-0.021392
-0.029380
-0.038064
-0.047258
-0.056828
-0.069092
0.246862
0.244573
0.237887
0.226193
0.208476
0.183374
0.149424
0.105637
0.052533
-0.007111
-0.065545
-0.117535
-0.161554
-0.198201
-0.228865
-0.254935
-0.277279
-0.295899
-0.309849
-0.317692
-0.318204
-0.310781
-0.295747
-0.274238
-0.247857
-0.218336
-0.187281
-0.156040
-0.125647
-0.096830
-0.070047
-0.045529
-0.023335
-0.003393
0.014447
0.030256
0.042995
0.051472
0.054420
0.051096
0.041482
0.026382
0.007568
-0.012192
-0.029452
-0.040893
-0.044375
-0.042032
-0.035306
-0.025788
-0.014921
-0.003846
0.006633
0.016023
0.024084
0.030764
0.036141
0.040365
0.043614
0.046055
0.047819
0.048988
0.049600
0.049700
0.049389
0.049172
0.049037
0.048916
0.048806
0.048427
0.047315
0.044960
0.040956
0.035129
0.027645
0.019055
0.010247
0.002312
-0.003705
-0.006909
-0.006766
-0.004639
-0.001331
0.002272
0.005447
0.007744
0.008984
0.009161
0.008325
0.006498
0.003635
-0.000365
-0.005613
-0.012165
-0.019978
-0.028924
-0.038834
-0.049567
-0.061071
-0.076117
0.268406
0.266432
0.260555
0.249901
0.232926
0.207341
0.170249
0.118893
0.052652
-0.025563
-0.097274
-0.154902
-0.199244
-0.233611
-0.261454
-0.285638
-0.307928
-0.328479
-0.345461
-0.355844
-0.357738
-0.349667
-0.331940
-0.306199
-0.274704
-0.239753
-0.203363
-0.167134
-0.132244
-0.099496
-0.069386
-0.042175
-0.017945
0.003370
0.021971
0.038470
0.051841
0.060219
0.061909
0.056329
0.043780
0.025241
0.002487
-0.021735
-0.043781
-0.059723
-0.066396
-0.063325
-0.054831
-0.042968
-0.029566
-0.016019
-0.003261
0.008161
0.017995
0.026193
0.032831
0.038055
0.042034
0.044923
0.046830
0.047805
0.047857
0.047043
0.045551
0.043716
0.042314
0.041202
0.040459
0.039830
0.038849
0.036989
0.033799
0.029024
0.022698
0.015200
0.007231
-0.000278
-0.006362
-0.010254
-0.010870
-0.009177
-0.005941
-0.001975
0.001977
0.005354
0.007804
0.009145
0.009294
0.008197
0.005779
0.001935
-0.003441
-0.010398
-0.018879
-0.028731
-0.039763
-0.051815
-0.064836
-0.081688
0.293532
0.292103
0.287705
0.279230
0.264570
0.240201
0.200824
0.139819
0.052350
-0.061289
-0.150883
-0.210406
-0.249540
-0.276751
-0.298087
-0.318164
-0.339956
-0.364109
-0.387850
-0.404113
-0.409479
-0.401203
-0.379897
-0.348312
-0.309860
-0.267701
-0.224389
-0.181814
-0.141292
-0.103679
-0.069501
-0.039062
-0.012531
0.010035
0.028775
0.044024
0.057670
0.065756
0.065788
0.057883
0.043204
0.023073
-0.001014
-0.026915
-0.051530
-0.071133
-0.082545
-0.081761
-0.072832
-0.059613
-0.044353
-0.028760
-0.013970
-0.000650
0.010880
0.020534
0.028369
0.034519
0.039142
0.042371
0.044276
0.044850
0.044075
0.042049
0.039119
0.035859
0.032904
0.030897
0.029753
0.029179
0.028679
0.027693
0.025723
0.022432
0.017727
0.011813
0.005200
-0.001356
-0.007000
-0.010961
-0.012563
-0.011346
-0.008478
-0.004595
-0.000394
0.003517
0.006680
0.008789
0.009648
0.009117
0.007065
0.003352
-0.002143
-0.009465
-0.018534
-0.029160
-0.041104
-0.054169
-0.068270
-0.086284
0.321238
0.320641
0.318588
0.313906
0.304131
0.284527
0.246418
0.175415
0.051822
-0.135113
-0.239767
-0.285622
-0.308431
-0.321542
-0.331576
-0.344312
-0.363953
-0.392379
-0.427333
-0.458170
-0.470796
-0.463531
-0.438043
-0.399250
-0.352363
-0.301672
-0.250326
-0.200491
-0.153586
-0.110497
-0.071763
-0.037747
-0.008793
0.014677
0.032412
0.044936
0.053054
0.059678
0.057086
0.047058
0.032433
0.014215
-0.007058
-0.030294
-0.053351
-0.073158
-0.086473
-0.090942
-0.083971
-0.071367
-0.055908
-0.039587
-0.023761
-0.009269
0.003435
0.014166
0.022908
0.029745
0.034791
0.038130
0.039766
0.039634
0.037709
0.034206
0.029703
0.025036
0.020993
0.018325
0.017089
0.016917
0.017260
0.017516
0.017133
0.015695
0.012989
0.009057
0.004223
-0.000939
-0.005708
-0.009360
-0.011336
-0.010875
-0.008643
-0.005225
-0.001255
0.002664
0.006027
0.008449
0.009650
0.009411
0.007537
0.003842
-0.001817
-0.009479
-0.019039
-0.030264
-0.042869
-0.056615
-0.071387
-0.090069
0.350001
0.350512
0.351688
0.352617
0.351132
0.342271
0.314561
0.241558
0.056188
-0.299799
-0.375611
-0.367540
-0.362406
-0.357947
-0.354201
-0.357379
-0.372254
-0.401831
-0.446907
-0.499017
-0.528888
-0.525436
-0.496708
-0.451220
-0.396461
-0.337871
-0.279111
-0.222570
-0.169766
-0.121641
-0.078777
-0.041619
-0.010794
0.012510
0.026975
0.033391
0.034844
0.031924
0.026619
0.018635
0.008478
-0.003740
-0.018221
-0.034792
-0.052345
-0.068730
-0.081254
-0.087675
-0.085559
-0.075224
-0.061439
-0.046123
-0.030724
-0.016235
-0.003273
0.007828
0.016929
0.024009
0.029095
0.032185
0.033198
0.032020
0.028678
0.023568
0.017542
0.011680
0.006909
0.003951
0.002972
0.003559
0.005105
0.006947
0.008468
0.009171
0.008735
0.007060
0.004298
0.000846
-0.002717
-0.005756
-0.007743
-0.007978
-0.006436
-0.003726
-0.000350
0.003145
0.006257
0.008564
0.009730
0.009473
0.007540
0.003704
-0.002197
-0.010194
-0.020155
-0.031807
-0.044826
-0.058943
-0.074024
-0.092936
0.377796
0.379571
0.384518
0.392389
0.402303
0.411410
0.410685
0.370105
0.152549
-0.619002
-0.535191
-0.414290
-0.391757
-0.379193
-0.366625
-0.364590
-0.377126
-0.404285
-0.449207
-0.507271
-0.558887
-0.566224
-0.537371
-0.489067
-0.430600
-0.368092
-0.305455
-0.245255
-0.189199
-0.138453
-0.093923
-0.056613
-0.028009
-0.009837
-0.002511
-0.003444
-0.008116
-0.013909
-0.017943
-0.020897
-0.023858
-0.027660
-0.033108
-0.040723
-0.050313
-0.060694
-0.069865
-0.075666
-0.076518
-0.070407
-0.059784
-0.047000
-0.033472
-0.020265
-0.008128
0.002448
0.011174
0.017892
0.022504
0.024893
0.024887
0.022348
0.017400
0.010661
0.003241
-0.003588
-0.008812
-0.011742
-0.012121
-0.010413
-0.007305
-0.003550
0.000146
0.003202
0.005201
0.005924
0.005382
0.003818
0.001675
-0.000492
-0.002144
-0.002848
-0.002043
-0.000168
0.002391
0.005167
0.007693
0.009543
0.010351
0.009792
0.007570
0.003428
-0.002806
-0.011150
-0.021443
-0.033379
-0.046604
-0.060828
-0.075904
-0.094653
0.402324
0.405280
0.413798
0.428461
0.450241
0.480397
0.519822
0.565614
0.653940
0.017469
-0.464580
-0.393969
-0.396627
-0.391904
-0.386447
-0.386161
-0.396141
-0.417095
-0.453152
-0.502353
-0.549199
-0.570226
-0.545309
-0.499196
-0.443024
-0.382683
-0.321859
-0.263175
-0.208595
-0.159687
-0.117938
-0.085088
-0.063103
-0.053053
-0.053227
-0.058883
-0.065016
-0.068388
-0.067098
-0.062923
-0.057509
-0.052226
-0.048259
-0.046542
-0.047524
-0.050858
-0.055308
-0.059080
-0.060451
-0.058325
-0.051489
-0.042123
-0.031489
-0.020604
-0.010271
-0.001098
0.006486
0.012181
0.015751
0.016952
0.015525
0.011332
0.004623
-0.003760
-0.012486
-0.020140
-0.025642
-0.028274
-0.027723
-0.024535
-0.019513
-0.013542
-0.007442
-0.001894
0.002601
0.005738
0.007421
0.007775
0.007129
0.005955
0.004760
0.003975
0.004123
0.005174
0.006846
0.008762
0.010509
0.011682
0.011907
0.010833
0.008138
0.003549
-0.003102
-0.011812
-0.022390
-0.034502
-0.047769
-0.061883
-0.076685
-0.094922
0.421440
0.425220
0.436219
0.455542
0.485294
0.529123
0.593358
0.688582
0.819312
0.840187
0.000000
-0.397788
-0.401607
-0.405470
-0.409595
-0.416426
-0.426520
-0.441839
-0.464677
-0.493591
-0.520042
-0.530497
-0.517043
-0.476051
-0.426851
-0.374074
-0.320651
-0.269055
-0.221392
-0.179585
-0.145663
-0.121882
-0.109961
-0.109184
-0.115338
-0.122525
-0.126204
-0.123196
-0.114198
-0.101501
-0.087186
-0.072983
-0.060280
-0.050152
-0.043313
-0.039935
-0.039433
-0.040503
-0.041541
-0.041253
-0.038205
-0.032358
-0.025066
-0.017113
-0.009262
-0.002172
0.003626
0.007708
0.009708
0.009258
0.006025
-0.000106
-0.008743
-0.018836
-0.028867
-0.037292
-0.042962
-0.045069
-0.043288
-0.038289
-0.031041
-0.022598
-0.013930
-0.005828
0.001131
0.006583
0.010369
0.012538
0.013338
0.013173
0.012520
0.011812
0.011529
0.011894
0.012743
0.013801
0.014720
0.015128
0.014658
0.012949
0.009669
0.004545
-0.002574
-0.011658
-0.022485
-0.034690
-0.047871
-0.061695
-0.075990
-0.093386
0.433647
0.437722
0.449565
0.470265
0.501749
0.546809
0.608681
0.688806
0.780915
0.861061
0.766752
0.000000
-0.410582
-0.419558
-0.433310
-0.451253
-0.469041
-0.481941
-0.487493
-0.487772
-0.483092
-0.469706
-0.450912
-0.420590
-0.379871
-0.337441
-0.295029
-0.254764
-0.218706
-0.189005
-0.168101
-0.158226
-0.159626
-0.168855
-0.179714
-0.186350
-0.185031
-0.173020
-0.154864
-0.133020
-0.109874
-0.087406
-0.067109
-0.050041
-0.036896
-0.027997
-0.023140
-0.021459
-0.021560
-0.021942
-0.021340
-0.018978
-0.015019
-0.010156
-0.005082
-0.000453
0.003143
0.005192
0.005213
0.002731
-0.002640
-0.010969
-0.021715
-0.033633
-0.045028
-0.054225
-0.059984
-0.061360
-0.058098
-0.051030
-0.041331
-0.030260
-0.018958
-0.008339
0.000953
0.008519
0.014180
0.017951
0.020039
0.020808
0.020715
0.020217
0.019690
0.019542
0.019719
0.020033
0.020197
0.019876
0.018713
0.016353
0.012465
0.006790
-0.000797
-0.010232
-0.021259
-0.033480
-0.046460
-0.059831
-0.073394
-0.089597
0.438404
0.442247
0.453344
0.472421
0.500657
0.539545
0.590019
0.649998
0.706021
0.720261
0.672444
0.548458
0.000000
-0.439044
-0.458531
-0.501851
-0.533580
-0.544774
-0.526045
-0.488782
-0.445780
-0.404531
-0.367499
-0.333072
-0.302868
-0.270867
-0.240588
-0.214123
-0.193488
-0.180943
-0.178777
-0.187825
-0.205384
-0.225097
-0.239766
-0.244570
-0.234101
-0.213258
-0.185933
-0.155351
-0.124237
-0.094714
-0.068287
-0.045912
-0.028129
-0.015171
-0.006948
-0.002890
-0.001889
-0.002521
-0.003494
-0.003608
-0.002441
-0.000414
0.001958
0.004072
0.005327
0.005144
0.002948
-0.001818
-0.009566
-0.020291
-0.033292
-0.047136
-0.059953
-0.069919
-0.075691
-0.076151
-0.071231
-0.061957
-0.049730
-0.036028
-0.022173
-0.009200
0.002185
0.011572
0.018791
0.023870
0.027009
0.028558
0.028966
0.028701
0.028150
0.027670
0.027375
0.027136
0.026711
0.025796
0.024048
0.021120
0.016694
0.010534
0.002548
-0.007164
-0.018307
-0.030444
-0.043094
-0.055840
-0.068433
-0.083015
0.436135
0.439411
0.448782
0.464584
0.487203
0.516600
0.551351
0.586290
0.608251
0.591759
0.518849
0.424472
0.247258
0.000000
-0.516444
-0.574356
-0.612457
-0.615555
-0.565674
-0.489242
-0.408018
-0.335559
-0.277847
-0.234275
-0.202254
-0.179090
-0.160221
-0.148904
-0.147070
-0.156440
-0.177730
-0.208752
-0.243289
-0.272804
-0.289881
-0.290135
-0.270248
-0.240555
-0.205019
-0.167167
-0.129845
-0.095149
-0.064457
-0.038546
-0.017747
-0.002116
0.008482
0.014447
0.016601
0.016175
0.014522
0.012761
0.011668
0.011335
0.011357
0.011184
0.010215
0.007824
0.003365
-0.003776
-0.014001
-0.027201
-0.042506
-0.058292
-0.072513
-0.083188
-0.088861
-0.088259
-0.081621
-0.070169
-0.055529
-0.039392
-0.023249
-0.008243
0.004875
0.015698
0.024096
0.030136
0.034043
0.036175
0.036985
0.036947
0.036479
0.035866
0.035326
0.034767
0.033980
0.032678
0.030533
0.027207
0.022401
0.015905
0.007662
-0.002186
-0.013304
-0.025210
-0.037366
-0.049282
-0.060634
-0.073054
0.427870
0.430341
0.437313
0.448719
0.464223
0.482743
0.501572
0.514828
0.511429
0.473657
0.383176
0.229335
0.070044
-0.385349
-0.682537
-0.622277
-0.661334
-0.642091
-0.571252
-0.471672
-0.365361
-0.269866
-0.194733
-0.140020
-0.101615
-0.078658
-0.069146
-0.072903
-0.091534
-0.124679
-0.169924
-0.221493
-0.270423
-0.307117
-0.324732
-0.314879
-0.288383
-0.251971
-0.210569
-0.167977
-0.127005
-0.089567
-0.056805
-0.029254
-0.007021
0.010030
0.022135
0.029614
0.033014
0.033251
0.031520
0.028979
0.026372
0.024326
0.022537
0.020503
0.017626
0.013240
0.006648
-0.002788
-0.015421
-0.031011
-0.048507
-0.066101
-0.081577
-0.092806
-0.098229
-0.096473
-0.088191
-0.074780
-0.058063
-0.039908
-0.021944
-0.005392
0.008972
0.020769
0.029920
0.036552
0.040932
0.043439
0.044534
0.044697
0.044351
0.043800
0.043237
0.042602
0.041705
0.040269
0.037970
0.034481
0.029521
0.022909
0.014624
0.004846
-0.006046
-0.017517
-0.028960
-0.039799
-0.049603
-0.059227
0.415069
0.416647
0.421008
0.427800
0.436230
0.444667
0.450004
0.446716
0.425791
0.373792
0.272674
0.097028
-0.207599
-0.840742
-0.742798
-0.642529
-0.629682
-0.592628
-0.518334
-0.419655
-0.313769
-0.215941
-0.135584
-0.073984
-0.027699
0.002804
0.008431
-0.007627
-0.044603
-0.097865
-0.161444
-0.226907
-0.283922
-0.322708
-0.334995
-0.318166
-0.286764
-0.246634
-0.202674
-0.158584
-0.116943
-0.079383
-0.046769
-0.019404
0.002795
0.020125
0.032934
0.041540
0.046284
0.047709
0.046656
0.044103
0.040870
0.037852
0.034883
0.031519
0.027167
0.021134
0.012689
0.001203
-0.013592
-0.031301
-0.050689
-0.069778
-0.086206
-0.097726
-0.102721
-0.099784
-0.090069
-0.075099
-0.056841
-0.037291
-0.018160
-0.000705
0.014309
0.026550
0.036003
0.042859
0.047435
0.050133
0.051414
0.051761
0.051603
0.051239
0.050843
0.050362
0.049609
0.048303
0.046121
0.042742
0.037899
0.031439
0.023374
0.013925
0.003513
-0.007269
-0.017741
-0.027224
-0.035162
-0.041330
0.399357
0.400083
0.401987
0.404568
0.406829
0.407000
0.402116
0.387487
0.356148
0.298348
0.200915
0.045981
-0.190619
-0.496757
-0.563247
-0.555487
-0.535657
-0.498324
-0.437285
-0.358107
-0.271553
-0.188156
-0.114938
-0.054217
-0.006265
0.029812
0.043570
0.022285
-0.023844
-0.086279
-0.156762
-0.225493
-0.281746
-0.316227
-0.317926
-0.298809
-0.266292
-0.226334
-0.183559
-0.141318
-0.101845
-0.066476
-0.035853
-0.010127
0.010886
0.027554
0.040304
0.049507
0.055444
0.058394
0.058788
0.057234
0.054348
0.051149
0.047665
0.043539
0.038207
0.030960
0.021056
0.007909
-0.008634
-0.028010
-0.048810
-0.068914
-0.085852
-0.097307
-0.101621
-0.097591
-0.086779
-0.070794
-0.051688
-0.031518
-0.012014
0.005591
0.020584
0.032702
0.042005
0.048746
0.053281
0.056026
0.057435
0.057975
0.058065
0.058009
0.057945
0.057823
0.057445
0.056523
0.054727
0.051736
0.047295
0.041273
0.033714
0.024872
0.015217
0.005394
-0.003835
-0.011688
-0.017471
-0.019605
0.382287
0.382277
0.382089
0.381181
0.378547
0.372534
0.360609
0.339102
0.303015
0.245996
0.160620
0.039635
-0.118657
-0.293403
-0.386726
-0.420766
-0.421556
-0.398474
-0.356597
-0.300118
-0.235985
-0.171273
-0.111303
-0.059002
-0.015079
0.018776
0.028489
0.010288
-0.031550
-0.089471
-0.154178
-0.215252
-0.262082
-0.284739
-0.281459
-0.262275
-0.232173
-0.195972
-0.157564
-0.119784
-0.084518
-0.052877
-0.025388
-0.002154
0.017003
0.032428
0.044541
0.053743
0.060349
0.064577
0.066617
0.066709
0.065377
0.063033
0.059802
0.055554
0.049802
0.041855
0.030991
0.016698
-0.001037
-0.021484
-0.043082
-0.063601
-0.080523
-0.091520
-0.094835
-0.089891
-0.078391
-0.062006
-0.042823
-0.022886
-0.003867
0.013088
0.027370
0.038809
0.047542
0.053874
0.058186
0.060890
0.062415
0.063192
0.063613
0.063983
0.064398
0.064805
0.065001
0.064685
0.063515
0.061168
0.057396
0.052083
0.045298
0.037330
0.028688
0.020075
0.012327
0.006327
0.002907
0.005199
0.365202
0.364604
0.362765
0.359177
0.352938
0.342650
0.326314
0.301247
0.264119
0.211196
0.139013
0.045891
-0.064552
-0.178218
-0.259184
-0.303912
-0.319653
-0.312734
-0.288246
-0.251029
-0.206068
-0.158387
-0.112134
-0.070205
-0.033961
-0.009555
-0.003064
-0.017159
-0.049821
-0.095543
-0.146379
-0.192971
-0.225978
-0.238284
-0.234594
-0.218198
-0.192944
-0.162542
-0.130092
-0.097933
-0.067671
-0.040289
-0.016284
0.004213
0.021318
0.035309
0.046548
0.055409
0.062220
0.067211
0.070520
0.072205
0.073009
0.072175
0.069965
0.066304
0.060771
0.052718
0.041483
0.026659
0.008382
-0.012454
-0.034163
-0.054450
-0.070812
-0.081057
-0.082840
-0.077297
-0.065542
-0.049373
-0.030876
-0.012011
0.005688
0.021233
0.034161
0.044423
0.052232
0.057931
0.061904
0.064537
0.066212
0.067304
0.068158
0.069074
0.070094
0.071168
0.072090
0.072551
0.072199
0.070704
0.067819
0.063438
0.057650
0.050770
0.043343
0.036125
0.030017
0.025999
0.025032
0.031897
0.349176
0.348136
0.345071
0.339550
0.330826
0.317796
0.298974
0.272512
0.236327
0.188428
0.127531
0.054141
-0.027764
-0.109188
-0.174789
-0.218555
-0.241041
-0.245057
-0.233963
-0.211350
-0.181217
-0.147355
-0.113115
-0.081020
-0.054264
-0.036675
-0.031832
-0.041452
-0.064383
-0.096716
-0.132407
-0.164318
-0.185690
-0.193726
-0.190318
-0.177198
-0.156944
-0.132255
-0.105531
-0.078684
-0.053101
-0.029680
-0.008916
0.009017
0.024174
0.036766
0.047095
0.055496
0.062282
0.067699
0.071894
0.075126
0.077364
0.078100
0.077319
0.074791
0.070053
0.062482
0.051487
0.036778
0.018637
-0.001901
-0.023044
-0.042459
-0.057668
-0.066550
-0.067152
-0.061041
-0.049375
-0.033969
-0.016835
0.000230
0.015896
0.029391
0.040444
0.049141
0.055772
0.060701
0.064290
0.066872
0.068764
0.070267
0.071665
0.073236
0.074958
0.076793
0.078542
0.079893
0.080485
0.079981
0.078130
0.074831
0.070184
0.064525
0.058429
0.052691
0.048276
0.046244
0.047671
0.059016
0.335019
0.333661
0.329728
0.322883
0.312544
0.297886
0.277853
0.251228
0.216793
0.173604
0.121463
0.061555
-0.002802
-0.065790
-0.119638
-0.159584
-0.184302
-0.194611
-0.192498
-0.180305
-0.161072
-0.137767
-0.113140
-0.089711
-0.070214
-0.057295
-0.053205
-0.058986
-0.073860
-0.095144
-0.118645
-0.139521
-0.153466
-0.158730
-0.155482
-0.144768
-0.128302
-0.108033
-0.085814
-0.063212
-0.041425
-0.021274
-0.003236
0.012492
0.025932
0.037256
0.046727
0.054647
0.061317
0.066985
0.071819
0.076093
0.079342
0.081383
0.081988
0.080765
0.077151
0.070495
0.060250
0.046220
0.028810
0.009170
-0.010830
-0.028840
-0.042432
-0.049599
-0.049116
-0.042635
-0.031401
-0.017211
-0.001945
0.012802
0.025948
0.036966
0.045800
0.052693
0.058012
0.062129
0.065356
0.067954
0.070146
0.072150
0.074225
0.076482
0.078952
0.081592
0.084208
0.086490
0.088074
0.088617
0.087860
0.085702
0.082247
0.077842
0.073085
0.068802
0.066005
0.065823
0.069433
0.084939
0.323314
0.321725
0.317192
0.309475
0.298144
0.282597
0.262108
0.235906
0.203325
0.164026
0.118308
0.067477
0.014161
-0.037700
-0.083476
-0.119701
-0.144724
-0.158466
-0.161951
-0.156889
-0.145357
-0.129753
-0.112378
-0.095463
-0.081156
-0.071415
-0.067753
-0.070823
-0.080082
-0.093707
-0.108872
-0.122355
-0.131372
-0.134287
-0.130762
-0.121391
-0.107342
-0.090060
-0.071006
-0.051483
-0.032533
-0.014895
0.000983
0.014911
0.026903
0.037121
0.045818
0.053286
0.059814
0.065655
0.071001
0.075828
0.079892
0.082980
0.084762
0.084748
0.082303
0.076745
0.067540
0.054551
0.038271
0.019935
0.001464
-0.014802
-0.026546
-0.031773
-0.030539
-0.023994
-0.013489
-0.000779
0.012394
0.024640
0.035108
0.043513
0.050018
0.055037
0.059030
0.062372
0.065317
0.068022
0.070598
0.073171
0.075930
0.078879
0.082094
0.085522
0.088974
0.092149
0.094687
0.096239
0.096541
0.095483
0.093166
0.089943
0.086422
0.083452
0.082074
0.083468
0.088888
0.108018
0.314485
0.312697
0.307731
0.299449
0.287534
0.271548
0.250989
0.225379
0.194388
0.158002
0.116739
0.071850
0.025450
-0.019593
-0.060111
-0.093493
-0.118183
-0.133743
-0.140675
-0.140161
-0.133822
-0.123533
-0.111239
-0.098824
-0.088045
-0.080427
-0.077081
-0.078471
-0.084214
-0.093035
-0.102953
-0.111705
-0.117350
-0.118356
-0.114319
-0.105557
-0.092904
-0.077485
-0.060503
-0.043072
-0.026110
-0.010288
0.003980
0.016522
0.027358
0.036659
0.044688
0.051746
0.058132
0.064102
0.069788
0.075066
0.079812
0.083768
0.086535
0.087560
0.086167
0.081659
0.073516
0.061645
0.046594
0.029662
0.012799
-0.001688
-0.011593
-0.015459
-0.013809
-0.007435
0.002241
0.013512
0.024757
0.034744
0.042798
0.048822
0.053172
0.056432
0.059184
0.061837
0.064591
0.067496
0.070509
0.073658
0.076991
0.080584
0.084474
0.088599
0.092780
0.096729
0.100094
0.102526
0.103751
0.103651
0.102317
0.100098
0.097607
0.095700
0.095436
0.098009
0.104700
0.126580
0.308899
0.306808
0.301470
0.292815
0.280574
0.264396
0.243915
0.218823
0.188974
0.154521
0.116064
0.074774
0.032446
-0.008630
-0.046000
-0.077538
-0.101829
-0.118311
-0.127219
-0.129431
-0.126263
-0.119294
-0.110193
-0.100596
-0.092006
-0.085696
-0.082572
-0.083011
-0.086739
-0.092793
-0.099668
-0.105609
-0.109047
-0.108748
-0.104258
-0.095748
-0.083864
-0.069540
-0.053816
-0.037683
-0.021978
-0.007320
0.005903
0.017527
0.027578
0.036229
0.043749
0.050457
0.056679
0.062725
0.068615
0.074297
0.079632
0.084317
0.087897
0.089771
0.089227
0.085562
0.078267
0.067281
0.053205
0.037387
0.021793
0.008660
0.000046
-0.003241
-0.001408
0.004703
0.013676
0.023863
0.033730
0.042139
0.048508
0.052837
0.055588
0.057470
0.059182
0.061216
0.063795
0.066910
0.070238
0.073829
0.077671
0.081795
0.086217
0.090877
0.095609
0.100141
0.104131
0.107230
0.109156
0.109776
0.109173
0.107684
0.105922
0.104746
0.105214
0.108503
0.115817
0.138821
0.307126
0.304125
0.298409
0.289531
0.277143
0.260911
0.240524
0.215747
0.186517
0.153048
0.115961
0.076376
0.035931
-0.003334
-0.039256
-0.069922
-0.093996
-0.110876
-0.120693
-0.124187
-0.122531
-0.117158
-0.109599
-0.101356
-0.093807
-0.088109
-0.085082
-0.085082
-0.087891
-0.092693
-0.098195
-0.102905
-0.105390
-0.104489
-0.099786
-0.091398
-0.079881
-0.066077
-0.050940
-0.035400
-0.020250
-0.006088
0.006709
0.017978
0.027742
0.036166
0.043513
0.050096
0.056215
0.062082
0.068011
0.073989
0.079770
0.084991
0.089149
0.091600
0.091601
0.088425
0.081557
0.070950
0.057248
0.041859
0.026793
0.014210
0.005786
0.002597
0.004397
0.010275
0.018841
0.028505
0.037792
0.045606
0.051387
0.055138
0.057325
0.058666
0.059893
0.061532
0.063800
0.066649
0.070155
0.074041
0.078211
0.082667
0.087414
0.092398
0.097463
0.102345
0.106708
0.110196
0.112521
0.113534
0.113306
0.112169
0.110733
0.109862
0.110618
0.114164
0.121632
0.142879
