# vtk DataFile Version 3.0
Scalar Field
ASCII
DATASET RECTILINEAR_GRID
DIMENSIONS 100 26 1
X_COORDINATES 100 double
0.050000 0.150000 0.250000 0.350000 0.450000 0.550000 0.650000 0.750000 0.850000 0.950000 1.050000 1.150000 1.250000 1.350000 1.450000 1.550000 1.650000 1.750000 1.850000 1.950000 2.050000 2.150000 2.250000 2.350000 2.450000 2.550000 2.650000 2.750000 2.850000 2.950000 3.050000 3.150000 3.250000 3.350000 3.450000 3.550000 3.650000 3.750000 3.850000 3.950000 4.050000 4.150000 4.250000 4.350000 4.450000 4.550000 4.650000 4.750000 4.850000 4.950000 5.050000 5.150000 5.250000 5.350000 5.450000 5.550000 5.650000 5.750000 5.850000 5.950000 6.050000 6.150000 6.250000 6.350000 6.450000 6.550000 6.650000 6.750000 6.850000 6.950000 7.050000 7.150000 7.250000 7.350000 7.450000 7.550000 7.650000 7.750000 7.850000 7.950000 8.050000 8.150000 8.250000 8.350000 8.450000 8.550000 8.650000 8.750000 8.850000 8.950000 9.050000 9.150000 9.250000 9.350000 9.450000 9.550000 9.650000 9.750000 9.850000 9.950000 
Y_COORDINATES 26 double
0.050000 0.150000 0.250000 0.350000 0.450000 0.550000 0.650000 0.750000 0.850000 0.950000 1.050000 1.150000 1.250000 1.350000 1.450000 1.550000 1.650000 1.750000 1.850000 1.950000 2.050000 2.150000 2.250000 2.350000 2.450000 2.550000 
Z_COORDINATES 1 double
0.0
POINT_DATA 2600
SCALARS Skalarfeld double 1
LOOKUP_TABLE default
0.267284
0.251895
0.236366
0.217677
0.194706
0.166989
0.134502
0.097655
0.057374
0.015123
-0.027201
-0.067565
-0.104143
-0.135591
-0.160804
-0.179066
-0.190469
-0.195432
-0.194632
-0.188913
-0.179207
-0.166453
-0.151542
-0.135279
-0.118369
-0.101426
-0.084991
-0.069553
-0.055547
-0.043326
-0.033119
-0.024984
-0.018767
-0.014183
-0.010949
-0.008905
-0.008071
-0.008614
-0.010754
-0.014631
-0.020168
-0.026969
-0.034242
-0.040724
-0.044659
-0.044297
-0.039234
-0.029411
-0.018073
-0.006709
0.003929
0.013488
0.021846
0.029000
0.035008
0.039954
0.043953
0.047081
0.049465
0.050974
0.051200
0.049822
0.046613
0.041660
0.035485
0.028926
0.022748
0.017224
0.012123
0.007123
0.002245
-0.002086
-0.005307
-0.007060
-0.007339
-0.006340
-0.004323
-0.001640
0.001461
0.004714
0.007877
0.010769
0.013226
0.015256
0.017058
0.018894
0.021030
0.023656
0.026856
0.030667
0.035147
0.040388
0.046490
0.053522
0.061515
0.070455
0.080280
0.090894
0.102270
0.115051
0.258658
0.252076
0.239533
0.222001
0.199329
0.171311
0.137947
0.099655
0.057441
0.012984
-0.031481
-0.073608
-0.111372
-0.143227
-0.168379
-0.186565
-0.197617
-0.201992
-0.200410
-0.193761
-0.183023
-0.169186
-0.153193
-0.135898
-0.118052
-0.100308
-0.083245
-0.067387
-0.053200
-0.041056
-0.031190
-0.023651
-0.018176
-0.014347
-0.011768
-0.010220
-0.009708
-0.010421
-0.012615
-0.016475
-0.021968
-0.028741
-0.036037
-0.042534
-0.046218
-0.044848
-0.037754
-0.028606
-0.017857
-0.006854
0.003549
0.012932
0.021155
0.028219
0.034190
0.039168
0.043295
0.046804
0.049663
0.051355
0.051726
0.050482
0.047279
0.042215
0.035895
0.029267
0.023146
0.017704
0.012538
0.007233
0.001876
-0.002917
-0.006398
-0.008155
-0.008322
-0.007062
-0.004871
-0.002101
0.001141
0.004583
0.007963
0.010966
0.013427
0.015359
0.017042
0.018741
0.020740
0.023243
0.026324
0.030015
0.034384
0.039544
0.045610
0.052656
0.060711
0.069775
0.079836
0.090797
0.102229
0.115675
0.262199
0.257970
0.247295
0.230742
0.208238
0.179509
0.144406
0.103240
0.057107
0.008091
-0.040768
-0.086436
-0.126607
-0.159838
-0.185439
-0.203354
-0.213537
-0.216516
-0.213095
-0.204245
-0.191038
-0.174583
-0.155955
-0.136151
-0.116065
-0.096488
-0.078120
-0.061604
-0.047515
-0.036274
-0.028042
-0.022631
-0.019683
-0.018238
-0.017582
-0.017333
-0.017451
-0.018154
-0.019774
-0.022580
-0.026627
-0.031624
-0.036826
-0.040966
-0.042427
-0.039973
-0.033609
-0.024502
-0.014572
-0.004772
0.004656
0.013219
0.020763
0.027272
0.032799
0.037436
0.041307
0.044547
0.047185
0.049169
0.050025
0.049227
0.046600
0.042309
0.036798
0.030697
0.024639
0.018766
0.012907
0.006940
0.001146
-0.003803
-0.007221
-0.008809
-0.008704
-0.007516
-0.005535
-0.002920
0.000416
0.003908
0.007311
0.010385
0.012981
0.015113
0.016847
0.018459
0.020214
0.022380
0.025088
0.028449
0.032592
0.037653
0.043753
0.050958
0.059282
0.068728
0.079275
0.090898
0.103687
0.119571
0.273587
0.270117
0.260450
0.244552
0.221996
0.192119
0.154337
0.108609
0.056046
-0.000651
-0.056667
-0.107700
-0.151169
-0.185953
-0.211793
-0.228892
-0.237522
-0.238259
-0.232004
-0.219825
-0.202926
-0.182580
-0.160053
-0.136546
-0.113150
-0.090832
-0.070439
-0.052754
-0.038643
-0.028689
-0.022983
-0.021018
-0.021727
-0.024106
-0.026475
-0.028216
-0.029240
-0.029823
-0.030405
-0.031382
-0.032934
-0.034905
-0.036750
-0.037574
-0.036388
-0.032571
-0.026227
-0.018121
-0.009259
-0.000325
0.007906
0.015330
0.021838
0.027409
0.032079
0.035928
0.039081
0.041680
0.043816
0.045463
0.046374
0.046235
0.044674
0.041393
0.036661
0.030884
0.024849
0.018684
0.012548
0.006550
0.001012
-0.003569
-0.006769
-0.008451
-0.008736
-0.007837
-0.005859
-0.002942
0.000190
0.003462
0.006762
0.009820
0.012403
0.014464
0.016074
0.017444
0.018862
0.020566
0.022800
0.025774
0.029670
0.034650
0.040848
0.048318
0.057034
0.067035
0.078397
0.091286
0.105890
0.127702
0.291386
0.288304
0.279390
0.264143
0.241597
0.210381
0.169022
0.116610
0.053964
-0.015515
-0.082661
-0.140975
-0.188106
-0.224008
-0.249305
-0.264661
-0.270694
-0.268109
-0.257823
-0.240999
-0.219012
-0.193360
-0.165561
-0.137073
-0.109225
-0.083176
-0.059909
-0.040304
-0.025864
-0.017486
-0.015299
-0.018379
-0.024807
-0.032175
-0.038544
-0.042651
-0.044503
-0.044592
-0.043609
-0.042172
-0.040656
-0.039112
-0.037272
-0.034644
-0.030725
-0.025259
-0.018392
-0.010620
-0.002564
0.005244
0.012397
0.018711
0.024127
0.028612
0.032201
0.034994
0.037150
0.038871
0.040323
0.041559
0.042406
0.042510
0.041449
0.038914
0.034801
0.029505
0.023477
0.016983
0.010754
0.004978
-0.000065
-0.004052
-0.006756
-0.008118
-0.008222
-0.007222
-0.005294
-0.002658
0.000392
0.003718
0.006934
0.009805
0.012191
0.013999
0.015265
0.016174
0.017007
0.018062
0.019669
0.022110
0.025617
0.030380
0.036571
0.044087
0.053045
0.063505
0.075590
0.089578
0.105986
0.133102
0.314866
0.312182
0.304235
0.290129
0.268234
0.236098
0.190626
0.128925
0.050495
-0.041300
-0.125232
-0.191889
-0.241456
-0.276809
-0.300114
-0.312291
-0.314561
-0.307457
-0.291751
-0.268709
-0.239946
-0.207270
-0.172538
-0.137545
-0.103918
-0.073040
-0.045994
-0.023565
-0.008238
-0.001675
-0.004200
-0.014353
-0.029001
-0.043942
-0.055241
-0.061787
-0.063975
-0.062802
-0.059468
-0.054980
-0.049982
-0.044752
-0.039268
-0.033338
-0.026763
-0.019493
-0.011699
-0.003730
0.004001
0.011137
0.017413
0.022670
0.026839
0.029999
0.032319
0.033831
0.034775
0.035442
0.036046
0.036771
0.037500
0.037846
0.037295
0.035385
0.031872
0.026866
0.020561
0.013984
0.007580
0.001883
-0.002782
-0.006181
-0.008221
-0.008942
-0.008479
-0.007023
-0.004786
-0.001989
0.001134
0.004372
0.007468
0.010193
0.012364
0.013836
0.014597
0.014808
0.014784
0.014918
0.015614
0.017229
0.020052
0.024300
0.030089
0.037480
0.046528
0.057262
0.069805
0.084479
0.101938
0.130531
0.343284
0.341184
0.334806
0.322930
0.303226
0.271801
0.222831
0.149078
0.045279
-0.088615
-0.195606
-0.267185
-0.313889
-0.345016
-0.364542
-0.372217
-0.370068
-0.357468
-0.334952
-0.303986
-0.266561
-0.224923
-0.181389
-0.138199
-0.097390
-0.060662
-0.029249
-0.003683
0.013687
0.018841
0.011216
-0.007084
-0.031741
-0.056862
-0.076089
-0.085347
-0.087327
-0.084060
-0.077615
-0.069553
-0.060836
-0.051941
-0.043017
-0.034048
-0.024999
-0.015919
-0.006984
0.001538
0.009353
0.016213
0.021938
0.026390
0.029453
0.031045
0.031236
0.030547
0.029718
0.029162
0.028718
0.028924
0.029706
0.030576
0.030876
0.029986
0.027480
0.023232
0.017428
0.010690
0.003776
-0.002110
-0.006748
-0.009818
-0.011319
-0.011376
-0.010207
-0.008078
-0.005263
-0.002025
0.001394
0.004774
0.007886
0.010494
0.012375
0.013360
0.013422
0.012724
0.011611
0.010545
0.010025
0.010512
0.012374
0.015854
0.021083
0.028244
0.037265
0.048102
0.060823
0.075689
0.093260
0.120697
0.375549
0.374321
0.370409
0.362459
0.347662
0.320669
0.271774
0.184924
0.038159
-0.181665
-0.309792
-0.368449
-0.399446
-0.420896
-0.436481
-0.441160
-0.435642
-0.417483
-0.387331
-0.347169
-0.299566
-0.247355
-0.193449
-0.140684
-0.091660
-0.048575
-0.013118
0.013570
0.034047
0.039134
0.027993
0.003720
-0.028517
-0.062367
-0.091180
-0.107551
-0.109809
-0.104647
-0.095315
-0.084019
-0.072039
-0.060011
-0.048194
-0.036674
-0.025505
-0.014790
-0.004708
0.004511
0.012635
0.019460
0.024808
0.028471
0.030218
0.029905
0.027710
0.024293
0.020526
0.017609
0.016280
0.016512
0.017944
0.019887
0.021542
0.022170
0.021207
0.018356
0.013650
0.007503
0.000633
-0.006050
-0.010973
-0.014055
-0.015364
-0.015026
-0.013313
-0.010571
-0.007155
-0.003397
0.000413
0.004019
0.007177
0.009638
0.011164
0.011571
0.010819
0.009070
0.006703
0.004261
0.002362
0.001589
0.002396
0.005049
0.009768
0.016661
0.025563
0.036338
0.048952
0.063540
0.080460
0.105477
0.410034
0.409986
0.409523
0.407529
0.401419
0.385421
0.346467
0.254694
0.035198
-0.378468
-0.479219
-0.476147
-0.473356
-0.481131
-0.497552
-0.508032
-0.503084
-0.481251
-0.444516
-0.395810
-0.338413
-0.275824
-0.211665
-0.149553
-0.092863
-0.044407
-0.006294
0.020070
0.035258
0.040758
0.029072
0.005297
-0.025979
-0.059819
-0.090695
-0.113435
-0.122040
-0.117262
-0.107108
-0.094454
-0.080868
-0.067126
-0.053592
-0.040453
-0.027855
-0.015973
-0.005025
0.004748
0.013103
0.019794
0.024522
0.026889
0.026511
0.023322
0.017881
0.011409
0.005376
0.000923
-0.000617
0.000395
0.003138
0.006686
0.010121
0.012628
0.013566
0.012528
0.009407
0.004447
-0.001752
-0.008294
-0.014118
-0.017721
-0.019251
-0.018949
-0.017076
-0.014028
-0.010236
-0.006113
-0.002020
0.001730
0.004856
0.007088
0.008172
0.007916
0.006271
0.003407
-0.000253
-0.004074
-0.007321
-0.009299
-0.009484
-0.007589
-0.003324
0.003282
0.011972
0.022505
0.034726
0.048618
0.064323
0.086318
0.444556
0.445884
0.449552
0.455134
0.461375
0.464658
0.454251
0.395748
0.138132
-0.735914
-0.670638
-0.536856
-0.502572
-0.499036
-0.518811
-0.549680
-0.552243
-0.531614
-0.493243
-0.440908
-0.378396
-0.309810
-0.239594
-0.172418
-0.112876
-0.064574
-0.029119
-0.006066
0.005466
0.006006
-0.001022
-0.015721
-0.036291
-0.060123
-0.083727
-0.103127
-0.114908
-0.116471
-0.108341
-0.097006
-0.084205
-0.070809
-0.057272
-0.043899
-0.030959
-0.018745
-0.007573
0.002230
0.010324
0.016323
0.019726
0.019950
0.016609
0.009969
0.001233
-0.007711
-0.015008
-0.019474
-0.020014
-0.017439
-0.012830
-0.007288
-0.001821
0.002721
0.005674
0.006588
0.005266
0.001817
-0.003296
-0.009282
-0.015124
-0.019778
-0.021949
-0.022114
-0.020531
-0.017604
-0.013812
-0.009639
-0.005518
-0.001827
0.001104
0.002976
0.003517
0.002524
-0.000050
-0.004016
-0.008903
-0.013994
-0.018457
-0.021515
-0.022589
-0.021381
-0.017537
-0.011257
-0.002892
0.007201
0.018739
0.031555
0.045600
0.064194
0.476574
0.479233
0.486955
0.500222
0.519811
0.546586
0.580547
0.616478
0.688873
-0.023521
-0.593674
-0.516709
-0.503700
-0.500497
-0.513970
-0.543934
-0.562528
-0.547833
-0.514836
-0.466829
-0.407774
-0.342316
-0.275863
-0.213970
-0.161488
-0.121373
-0.094214
-0.076531
-0.067098
-0.061450
-0.057456
-0.057042
-0.060755
-0.068237
-0.078169
-0.088322
-0.096132
-0.099667
-0.097847
-0.089947
-0.080050
-0.068982
-0.057224
-0.045164
-0.033198
-0.021761
-0.011311
-0.002321
0.004712
0.009207
0.010462
0.007815
0.001090
-0.008888
-0.020221
-0.030567
-0.038028
-0.041225
-0.039884
-0.035120
-0.028214
-0.020407
-0.012780
-0.006192
-0.001289
0.001492
0.001927
0.000043
-0.003823
-0.009009
-0.014603
-0.019625
-0.022914
-0.023771
-0.022846
-0.020444
-0.017048
-0.013181
-0.009340
-0.005960
-0.003420
-0.002056
-0.002160
-0.003942
-0.007447
-0.012461
-0.018470
-0.024695
-0.030241
-0.034268
-0.036157
-0.035593
-0.032177
-0.026296
-0.018404
-0.008977
0.001573
0.012940
0.024927
0.039763
0.503636
0.507289
0.518026
0.536950
0.566195
0.609511
0.673484
0.769461
0.905149
0.941939
0.000000
-0.510293
-0.503876
-0.497740
-0.503414
-0.517962
-0.530239
-0.524341
-0.498774
-0.459671
-0.411152
-0.358015
-0.306569
-0.262232
-0.228457
-0.204979
-0.187824
-0.174564
-0.159827
-0.141846
-0.122972
-0.105530
-0.091212
-0.081073
-0.075422
-0.073648
-0.074301
-0.075567
-0.075860
-0.073825
-0.067992
-0.060581
-0.051978
-0.042566
-0.032822
-0.023301
-0.014608
-0.007376
-0.002284
-0.000116
-0.001723
-0.007709
-0.017858
-0.030708
-0.043815
-0.054631
-0.061382
-0.062470
-0.058645
-0.051239
-0.041733
-0.031499
-0.021676
-0.013121
-0.006436
-0.002003
-0.000022
-0.000489
-0.003154
-0.007471
-0.012626
-0.017665
-0.021662
-0.023541
-0.023526
-0.021938
-0.019243
-0.015984
-0.012692
-0.009848
-0.007877
-0.007148
-0.007978
-0.010582
-0.015000
-0.020998
-0.028029
-0.035278
-0.041809
-0.046742
-0.049413
-0.049462
-0.046521
-0.041165
-0.033944
-0.025451
-0.016225
-0.006694
0.002834
0.013484
0.523912
0.528026
0.540101
0.561297
0.593711
0.640538
0.705767
0.790960
0.888608
0.978729
0.899125
0.000000
-0.496826
-0.489777
-0.479269
-0.476475
-0.475331
-0.468404
-0.447182
-0.416711
-0.382493
-0.350134
-0.324844
-0.309339
-0.301691
-0.295686
-0.288933
-0.274650
-0.247495
-0.215137
-0.180778
-0.147337
-0.117118
-0.091785
-0.072383
-0.059258
-0.051918
-0.049060
-0.048868
-0.049470
-0.048866
-0.045575
-0.040850
-0.034948
-0.028332
-0.021632
-0.015566
-0.010912
-0.008535
-0.009406
-0.014449
-0.024074
-0.037565
-0.052873
-0.067180
-0.077870
-0.083239
-0.081716
-0.075005
-0.064710
-0.052495
-0.039839
-0.027916
-0.017567
-0.009334
-0.003528
-0.000285
0.000413
-0.001225
-0.004742
-0.009423
-0.014381
-0.018730
-0.021616
-0.022483
-0.021814
-0.019983
-0.017509
-0.014937
-0.012780
-0.011495
-0.011483
-0.013081
-0.016514
-0.021812
-0.028728
-0.036697
-0.044885
-0.052334
-0.058138
-0.061623
-0.062174
-0.059845
-0.055207
-0.048917
-0.041682
-0.034155
-0.026869
-0.020222
-0.014280
0.536558
0.540577
0.552297
0.572537
0.602577
0.643879
0.697599
0.763570
0.830590
0.854953
0.819521
0.706025
0.000000
-0.468716
-0.447656
-0.428156
-0.414661
-0.398225
-0.375447
-0.352168
-0.334241
-0.326537
-0.331616
-0.347630
-0.367462
-0.381226
-0.379375
-0.353244
-0.314409
-0.268691
-0.220660
-0.173989
-0.131403
-0.094763
-0.065227
-0.043359
-0.029119
-0.021746
-0.019713
-0.020959
-0.023354
-0.024614
-0.023858
-0.021765
-0.018699
-0.015317
-0.012419
-0.010917
-0.011855
-0.016353
-0.025312
-0.038818
-0.055608
-0.073134
-0.088335
-0.098621
-0.101940
-0.097440
-0.087737
-0.074615
-0.059873
-0.045052
-0.031326
-0.019494
-0.010027
-0.003158
0.001048
0.002644
0.001827
-0.001013
-0.005247
-0.010060
-0.014585
-0.018079
-0.019848
-0.020087
-0.019137
-0.017493
-0.015697
-0.014278
-0.013717
-0.014442
-0.016806
-0.021038
-0.027163
-0.034923
-0.043745
-0.052790
-0.061087
-0.067714
-0.071992
-0.073079
-0.071517
-0.067843
-0.062800
-0.057192
-0.051766
-0.047145
-0.043802
-0.043159
0.541745
0.545237
0.555334
0.572457
0.597220
0.630012
0.669874
0.711853
0.743174
0.737033
0.676279
0.592530
0.428095
0.000000
-0.412610
-0.377563
-0.363582
-0.334345
-0.304710
-0.285302
-0.281307
-0.295511
-0.328187
-0.373995
-0.418330
-0.444707
-0.439008
-0.403110
-0.354108
-0.298013
-0.240011
-0.184168
-0.133361
-0.089425
-0.053385
-0.025689
-0.006345
0.005100
0.009704
0.009204
0.005787
0.001575
-0.001539
-0.003068
-0.003477
-0.003482
-0.003960
-0.005949
-0.010647
-0.019249
-0.032492
-0.050025
-0.070039
-0.089573
-0.105389
-0.114991
-0.115152
-0.108051
-0.095722
-0.080247
-0.063525
-0.047103
-0.032108
-0.019267
-0.008973
-0.001381
0.003505
0.005774
0.005612
0.003356
-0.000448
-0.005063
-0.009667
-0.013546
-0.015979
-0.016976
-0.016804
-0.015918
-0.014847
-0.014127
-0.014255
-0.015677
-0.018757
-0.023723
-0.030595
-0.039105
-0.048677
-0.058476
-0.067530
-0.074904
-0.079880
-0.081669
-0.081069
-0.078649
-0.075204
-0.071604
-0.068669
-0.067099
-0.067432
-0.072654
0.540450
0.543197
0.551064
0.564098
0.582140
0.604398
0.628447
0.648586
0.653761
0.626057
0.547822
0.409757
0.263659
-0.151626
-0.413353
-0.360700
-0.333989
-0.285554
-0.246418
-0.226282
-0.233133
-0.266216
-0.321106
-0.386675
-0.444264
-0.473785
-0.458572
-0.418821
-0.364585
-0.303301
-0.240667
-0.180824
-0.126528
-0.079400
-0.040223
-0.009240
0.013609
0.028602
0.036352
0.038002
0.035283
0.030141
0.024529
0.020237
0.016895
0.013772
0.009951
0.004305
-0.004441
-0.017417
-0.035045
-0.056472
-0.079391
-0.100522
-0.116468
-0.124526
-0.121903
-0.112510
-0.098285
-0.081335
-0.063536
-0.046361
-0.030840
-0.017604
-0.006962
0.000995
0.006308
0.009084
0.009492
0.007809
0.004493
0.000195
-0.004319
-0.008342
-0.011234
-0.012786
-0.013216
-0.012942
-0.012478
-0.012356
-0.013086
-0.015122
-0.018831
-0.024437
-0.031947
-0.041087
-0.051282
-0.061710
-0.071414
-0.079470
-0.085059
-0.087693
-0.088298
-0.087436
-0.085926
-0.084672
-0.084541
-0.086291
-0.090539
-0.102023
0.534049
0.535936
0.541251
0.549742
0.560766
0.572890
0.583188
0.586263
0.573154
0.530520
0.441002
0.280994
0.001137
-0.566912
-0.466005
-0.358615
-0.303876
-0.253501
-0.209051
-0.193018
-0.208775
-0.251944
-0.315595
-0.386210
-0.444406
-0.461750
-0.443281
-0.402707
-0.348604
-0.288140
-0.226766
-0.168313
-0.115229
-0.068867
-0.029787
0.001971
0.026615
0.044399
0.055589
0.060699
0.060752
0.057235
0.051556
0.045872
0.040536
0.034819
0.027886
0.018638
0.005865
-0.011327
-0.032934
-0.057608
-0.082672
-0.104683
-0.120364
-0.125034
-0.120900
-0.110334
-0.095436
-0.078262
-0.060562
-0.043665
-0.028468
-0.015499
-0.004997
0.002991
0.008525
0.011707
0.012673
0.011636
0.008955
0.005180
0.000998
-0.002905
-0.006003
-0.007869
-0.008693
-0.008854
-0.008847
-0.009199
-0.010420
-0.012969
-0.017205
-0.023338
-0.031358
-0.040985
-0.051653
-0.062564
-0.072795
-0.081468
-0.087412
-0.091241
-0.093323
-0.094293
-0.094981
-0.096294
-0.099113
-0.104246
-0.112400
-0.130191
0.524128
0.525158
0.527979
0.532172
0.536863
0.540419
0.540001
0.531007
0.506525
0.456915
0.369466
0.227621
0.010955
-0.261131
-0.310292
-0.288100
-0.256303
-0.222633
-0.196356
-0.190099
-0.208968
-0.251743
-0.310717
-0.371719
-0.411820
-0.418153
-0.399462
-0.362273
-0.313529
-0.259243
-0.204067
-0.151288
-0.103009
-0.060396
-0.023921
0.006414
0.030883
0.049850
0.063603
0.072324
0.076349
0.076513
0.073651
0.069473
0.063649
0.056216
0.046761
0.034419
0.018225
-0.002344
-0.026825
-0.053470
-0.079374
-0.101046
-0.114754
-0.117251
-0.112545
-0.102201
-0.088135
-0.072176
-0.055841
-0.040262
-0.026194
-0.014076
-0.004107
0.003667
0.009291
0.012838
0.014399
0.014120
0.012265
0.009271
0.005720
0.002230
-0.000710
-0.002629
-0.003630
-0.004049
-0.004354
-0.005060
-0.006671
-0.009635
-0.014295
-0.020836
-0.029229
-0.039186
-0.050162
-0.061396
-0.072022
-0.081029
-0.087777
-0.092870
-0.096599
-0.099575
-0.102585
-0.106491
-0.112158
-0.120425
-0.132115
-0.155697
0.512272
0.512533
0.513145
0.513643
0.513122
0.510035
0.501932
0.485190
0.454822
0.404496
0.326912
0.215228
0.068713
-0.089213
-0.169782
-0.196117
-0.197552
-0.189763
-0.184069
-0.189687
-0.211076
-0.247421
-0.292195
-0.332930
-0.354927
-0.357163
-0.340921
-0.310281
-0.270144
-0.225058
-0.178712
-0.133812
-0.092158
-0.054805
-0.022243
0.005440
0.028419
0.047001
0.061509
0.072229
0.079438
0.083406
0.086580
0.085639
0.080895
0.073171
0.062510
0.048372
0.030177
0.007855
-0.017710
-0.044507
-0.069584
-0.089552
-0.099624
-0.102148
-0.098400
-0.089893
-0.078223
-0.064857
-0.051010
-0.037595
-0.025242
-0.014341
-0.005106
0.002369
0.008069
0.012005
0.014217
0.014792
0.013916
0.011924
0.009286
0.006528
0.004119
0.002448
0.001488
0.000972
0.000478
-0.000486
-0.002407
-0.005711
-0.010706
-0.017542
-0.026163
-0.036285
-0.047396
-0.058784
-0.069620
-0.078936
-0.086798
-0.093301
-0.098784
-0.103809
-0.109077
-0.115358
-0.123458
-0.134233
-0.148633
-0.176717
0.499906
0.499519
0.498294
0.495810
0.491262
0.483338
0.470093
0.448853
0.416247
0.368457
0.301909
0.214828
0.110773
0.004229
-0.071959
-0.116591
-0.139969
-0.152340
-0.162338
-0.176547
-0.198289
-0.226969
-0.257884
-0.282801
-0.296332
-0.296543
-0.283611
-0.259847
-0.228453
-0.192664
-0.155266
-0.118413
-0.083615
-0.051817
-0.023511
0.001142
0.022213
0.039916
0.054536
0.066361
0.075630
0.083758
0.089041
0.090634
0.088354
0.082258
0.072306
0.058302
0.040144
0.018228
-0.006233
-0.031136
-0.053737
-0.069822
-0.078880
-0.082430
-0.081140
-0.075994
-0.068052
-0.058331
-0.047719
-0.036934
-0.026524
-0.016895
-0.008333
-0.001039
0.004863
0.009289
0.012224
0.013705
0.013869
0.012973
0.011401
0.009608
0.008052
0.006864
0.006127
0.005649
0.005059
0.003897
0.001710
-0.001886
-0.007146
-0.014168
-0.022868
-0.032978
-0.044048
-0.055472
-0.066409
-0.076449
-0.085428
-0.093389
-0.100616
-0.107566
-0.114807
-0.122977
-0.132783
-0.145062
-0.160875
-0.191243
0.488233
0.487310
0.484600
0.479789
0.472247
0.460954
0.444457
0.420885
0.388071
0.343867
0.286758
0.216934
0.137962
0.058384
-0.007937
-0.056751
-0.090741
-0.114996
-0.134766
-0.154253
-0.175673
-0.198737
-0.220672
-0.237556
-0.246488
-0.245878
-0.235771
-0.217545
-0.193299
-0.165298
-0.135608
-0.105896
-0.077372
-0.050816
-0.026648
-0.005021
0.014097
0.030848
0.045424
0.058028
0.069163
0.078489
0.085248
0.088827
0.088817
0.084951
0.077003
0.064863
0.048722
0.029298
0.007973
-0.013269
-0.031490
-0.045296
-0.055156
-0.061250
-0.063836
-0.063232
-0.059868
-0.054302
-0.047144
-0.038973
-0.030324
-0.021686
-0.013474
-0.006067
0.000297
0.005361
0.009098
0.011502
0.012688
0.012919
0.012494
0.011754
0.010937
0.010294
0.009875
0.009508
0.008857
0.007506
0.005048
0.001169
-0.004309
-0.011410
-0.020022
-0.029912
-0.040768
-0.052180
-0.063519
-0.074379
-0.084526
-0.093920
-0.102729
-0.111277
-0.119980
-0.129319
-0.139877
-0.152415
-0.168001
-0.197533
0.478250
0.476856
0.472907
0.466267
0.456518
0.442924
0.424449
0.399831
0.367732
0.327013
0.277183
0.219028
0.155338
0.091264
0.033557
-0.014250
-0.052191
-0.082349
-0.107479
-0.129994
-0.151252
-0.171200
-0.188462
-0.201164
-0.207469
-0.206530
-0.198462
-0.184219
-0.165277
-0.143286
-0.119799
-0.096086
-0.073067
-0.051305
-0.031057
-0.012362
0.004866
0.020745
0.035347
0.048674
0.060840
0.071213
0.079361
0.084746
0.086885
0.085394
0.080019
0.070736
0.057897
0.042333
0.025358
0.008709
-0.006628
-0.020206
-0.031944
-0.041727
-0.049163
-0.053733
-0.055164
-0.053623
-0.049563
-0.043516
-0.036067
-0.027882
-0.019518
-0.011664
-0.004490
0.001425
0.006083
0.009453
0.011616
0.012748
0.013152
0.013143
0.012972
0.012811
0.012670
0.012369
0.011595
0.009974
0.007163
0.002951
-0.002724
-0.009789
-0.018116
-0.027661
-0.038364
-0.049783
-0.061612
-0.073403
-0.084737
-0.095394
-0.105415
-0.115013
-0.124476
-0.134145
-0.144476
-0.156130
-0.169876
-0.194884
0.470833
0.468921
0.463794
0.455610
0.444177
0.428989
0.409319
0.384328
0.353208
0.315399
0.270880
0.220527
0.166410
0.111786
0.060461
0.015013
-0.023763
-0.056435
-0.084225
-0.108362
-0.129588
-0.147917
-0.162830
-0.173106
-0.177859
-0.176742
-0.170014
-0.158484
-0.143324
-0.125836
-0.107234
-0.088494
-0.070269
-0.052881
-0.036360
-0.020534
-0.005138
0.010033
0.024930
0.039193
0.052347
0.064004
0.073714
0.080969
0.085273
0.086220
0.083583
0.077437
0.068244
0.056798
0.044067
0.030268
0.016414
0.002429
-0.011791
-0.025873
-0.038643
-0.048480
-0.054262
-0.055936
-0.054087
-0.049299
-0.042231
-0.033946
-0.024763
-0.016161
-0.008460
-0.001661
0.003834
0.007984
0.010882
0.012727
0.013800
0.014381
0.014688
0.014844
0.014828
0.014432
0.013355
0.011273
0.007922
0.003247
-0.002645
-0.009625
-0.017651
-0.026736
-0.036976
-0.048479
-0.060965
-0.073780
-0.086189
-0.097729
-0.108351
-0.118276
-0.127784
-0.137049
-0.146340
-0.156548
-0.167839
-0.184095
0.466953
0.464153
0.457599
0.447928
0.435109
0.418764
0.398338
0.373257
0.343033
0.307418
0.266596
0.221372
0.173298
0.124583
0.077678
0.034512
-0.003904
-0.037412
-0.066369
-0.091262
-0.112413
-0.129842
-0.143324
-0.152101
-0.155845
-0.154555
-0.148645
-0.138912
-0.126400
-0.112222
-0.097384
-0.082645
-0.068442
-0.054882
-0.041783
-0.028742
-0.015198
-0.000596
0.014958
0.030220
0.044785
0.058069
0.069527
0.078649
0.084955
0.088056
0.087769
0.084280
0.078185
0.070155
0.059741
0.048237
0.035453
0.020893
0.004176
-0.014229
-0.032347
-0.047094
-0.056121
-0.059408
-0.058475
-0.054102
-0.046255
-0.037482
-0.028511
-0.019205
-0.010628
-0.003168
0.002929
0.007620
0.011012
0.013324
0.014841
0.015826
0.016431
0.016734
0.016712
0.016032
0.014422
0.011566
0.007335
0.001826
-0.004599
-0.011529
-0.018888
-0.027105
-0.036765
-0.048227
-0.061231
-0.074882
-0.088063
-0.099996
-0.110530
-0.119965
-0.128993
-0.137848
-0.146697
-0.155405
-0.164295
-0.173178
0.468285
0.463038
0.454329
0.443071
0.429053
0.411844
0.390898
0.365794
0.336221
0.302091
0.263662
0.221646
0.177261
0.132143
0.088086
0.046643
0.008861
-0.024764
-0.054134
-0.079275
-0.100222
-0.117209
-0.129741
-0.137600
-0.140732
-0.139346
-0.133967
-0.125402
-0.114628
-0.102647
-0.090331
-0.078300
-0.066855
-0.055973
-0.045380
-0.034616
-0.022960
-0.009155
0.006530
0.023065
0.039352
0.054411
0.067548
0.078242
0.086050
0.090607
0.091753
0.089802
0.085730
0.078753
0.070296
0.060248
0.048148
0.033282
0.015022
-0.006354
-0.028573
-0.047278
-0.058388
-0.061197
-0.058961
-0.054558
-0.048176
-0.039126
-0.029346
-0.019667
-0.010764
-0.003042
0.003289
0.008190
0.011769
0.014249
0.015947
0.017165
0.017913
0.018201
0.017849
0.016743
0.014531
0.010930
0.005849
-0.000459
-0.007423
-0.014464
-0.021460
-0.028951
-0.037803
-0.048617
-0.061266
-0.074881
-0.088274
-0.100509
-0.111266
-0.120825
-0.129435
-0.137705
-0.145888
-0.153962
-0.162036
-0.169613
0.479321
0.465241
0.453429
0.440793
0.425961
0.408138
0.386876
0.361767
0.332567
0.299247
0.262073
0.221685
0.179123
0.135759
0.093108
0.052565
0.015181
-0.018415
-0.047972
-0.073500
-0.094936
-0.111795
-0.124040
-0.131611
-0.134572
-0.133212
-0.128091
-0.120003
-0.109884
-0.098678
-0.087199
-0.076014
-0.065382
-0.055255
-0.045334
-0.035167
-0.024219
-0.012046
0.002752
0.020048
0.037509
0.053667
0.067686
0.079047
0.087354
0.092288
0.093681
0.091656
0.086472
0.079966
0.072051
0.062474
0.050748
0.036226
0.018410
-0.002407
-0.024274
-0.043371
-0.055767
-0.060418
-0.058958
-0.053847
-0.046925
-0.038210
-0.028634
-0.019103
-0.010292
-0.002627
0.003674
0.008563
0.012133
0.014589
0.016192
0.017189
0.017837
0.018021
0.017564
0.016269
0.013862
0.010116
0.004971
-0.001343
-0.008335
-0.015515
-0.022756
-0.030467
-0.039337
-0.049853
-0.061929
-0.074892
-0.087797
-0.099850
-0.110686
-0.120382
-0.129214
-0.137495
-0.145610
-0.153639
-0.161535
-0.169456
