# vtk DataFile Version 3.0
Scalar Field
ASCII
DATASET RECTILINEAR_GRID
DIMENSIONS 100 26 1
X_COORDINATES 100 double
0.050000 0.150000 0.250000 0.350000 0.450000 0.550000 0.650000 0.750000 0.850000 0.950000 1.050000 1.150000 1.250000 1.350000 1.450000 1.550000 1.650000 1.750000 1.850000 1.950000 2.050000 2.150000 2.250000 2.350000 2.450000 2.550000 2.650000 2.750000 2.850000 2.950000 3.050000 3.150000 3.250000 3.350000 3.450000 3.550000 3.650000 3.750000 3.850000 3.950000 4.050000 4.150000 4.250000 4.350000 4.450000 4.550000 4.650000 4.750000 4.850000 4.950000 5.050000 5.150000 5.250000 5.350000 5.450000 5.550000 5.650000 5.750000 5.850000 5.950000 6.050000 6.150000 6.250000 6.350000 6.450000 6.550000 6.650000 6.750000 6.850000 6.950000 7.050000 7.150000 7.250000 7.350000 7.450000 7.550000 7.650000 7.750000 7.850000 7.950000 8.050000 8.150000 8.250000 8.350000 8.450000 8.550000 8.650000 8.750000 8.850000 8.950000 9.050000 9.150000 9.250000 9.350000 9.450000 9.550000 9.650000 9.750000 9.850000 9.950000 
Y_COORDINATES 26 double
0.050000 0.150000 0.250000 0.350000 0.450000 0.550000 0.650000 0.750000 0.850000 0.950000 1.050000 1.150000 1.250000 1.350000 1.450000 1.550000 1.650000 1.750000 1.850000 1.950000 2.050000 2.150000 2.250000 2.350000 2.450000 2.550000 
Z_COORDINATES 1 double
0.0
POINT_DATA 2600
SCALARS Skalarfeld double 1
LOOKUP_TABLE default
0.271338
0.256254
0.241570
0.224235
0.203119
0.177707
0.147873
0.113864
0.076360
0.036511
-0.004126
-0.043817
-0.080927
-0.114122
-0.142507
-0.164800
-0.180540
-0.189742
-0.192795
-0.190456
-0.183779
-0.173973
-0.162245
-0.149636
-0.136918
-0.124551
-0.112717
-0.101402
-0.090502
-0.079914
-0.069596
-0.059593
-0.050025
-0.041081
-0.032630
-0.024673
-0.017563
-0.011426
-0.006253
-0.001964
0.001545
0.004379
0.006630
0.008381
0.009699
0.010642
0.011260
0.011596
0.011689
0.011573
0.011280
0.010837
0.010268
0.009595
0.008837
0.008009
0.007125
0.006196
0.005232
0.004239
0.003226
0.002195
0.001153
0.000101
-0.000958
-0.002021
-0.003087
-0.004155
-0.005225
-0.006294
-0.007363
-0.008432
-0.009499
-0.010566
-0.011632
-0.012697
-0.013762
-0.014825
-0.015888
-0.016951
-0.018014
-0.019077
-0.020142
-0.021208
-0.022276
-0.023348
-0.024425
-0.025507
-0.026597
-0.027698
-0.028813
-0.029945
-0.031101
-0.032287
-0.033516
-0.034800
-0.036163
-0.037636
-0.039267
-0.040163
0.262180
0.255910
0.244224
0.228107
0.207383
0.181796
0.151252
0.115997
0.076784
0.034953
-0.007635
-0.048985
-0.087333
-0.121283
-0.149676
-0.172200
-0.188145
-0.197327
-0.200099
-0.197226
-0.189801
-0.179099
-0.166397
-0.152802
-0.139136
-0.125896
-0.113286
-0.101309
-0.089872
-0.078875
-0.068274
-0.058099
-0.048424
-0.039232
-0.030709
-0.023102
-0.016373
-0.010571
-0.005664
-0.001574
0.001791
0.004522
0.006703
0.008404
0.009689
0.010610
0.011213
0.011539
0.011627
0.011508
0.011214
0.010771
0.010204
0.009534
0.008779
0.007955
0.007074
0.006149
0.005189
0.004200
0.003190
0.002163
0.001123
0.000074
-0.000982
-0.002042
-0.003106
-0.004173
-0.005240
-0.006307
-0.007375
-0.008442
-0.009509
-0.010575
-0.011639
-0.012703
-0.013767
-0.014829
-0.015891
-0.016953
-0.018015
-0.019077
-0.020140
-0.021205
-0.022272
-0.023341
-0.024415
-0.025494
-0.026579
-0.027674
-0.028781
-0.029902
-0.031043
-0.032208
-0.033404
-0.034639
-0.035920
-0.037249
-0.038606
-0.039616
0.264648
0.260746
0.250985
0.235946
0.215551
0.189489
0.157524
0.119794
0.077124
0.031210
-0.015362
-0.060001
-0.100749
-0.136345
-0.166001
-0.189268
-0.205840
-0.215104
-0.217355
-0.213332
-0.204182
-0.191300
-0.176117
-0.159902
-0.143632
-0.127944
-0.113163
-0.099381
-0.086560
-0.074619
-0.063492
-0.053155
-0.043607
-0.034845
-0.026911
-0.019891
-0.013811
-0.008596
-0.004175
-0.000473
0.002593
0.005099
0.007110
0.008687
0.009878
0.010728
0.011278
0.011565
0.011622
0.011481
0.011171
0.010717
0.010143
0.009469
0.008712
0.007887
0.007009
0.006086
0.005129
0.004144
0.003137
0.002114
0.001078
0.000033
-0.001019
-0.002076
-0.003137
-0.004200
-0.005265
-0.006330
-0.007395
-0.008460
-0.009525
-0.010588
-0.011652
-0.012714
-0.013775
-0.014836
-0.015897
-0.016957
-0.018017
-0.019077
-0.020138
-0.021199
-0.022263
-0.023328
-0.024397
-0.025469
-0.026547
-0.027631
-0.028724
-0.029827
-0.030943
-0.032073
-0.033220
-0.034383
-0.035556
-0.036720
-0.037822
-0.038852
0.274391
0.271274
0.262595
0.248350
0.228123
0.201244
0.167059
0.125366
0.076984
0.024152
-0.028908
-0.078474
-0.122452
-0.160053
-0.191069
-0.215309
-0.232559
-0.241804
-0.243136
-0.237223
-0.225317
-0.209037
-0.190085
-0.169984
-0.149938
-0.130769
-0.112953
-0.096692
-0.082004
-0.068818
-0.057027
-0.046527
-0.037219
-0.029014
-0.021835
-0.015623
-0.010299
-0.005759
-0.001918
0.001300
0.003973
0.006165
0.007931
0.009315
0.010355
0.011087
0.011543
0.011755
0.011753
0.011565
0.011217
0.010735
0.010139
0.009448
0.008679
0.007847
0.006963
0.006037
0.005079
0.004094
0.003089
0.002068
0.001034
-0.000008
-0.001058
-0.002112
-0.003170
-0.004231
-0.005292
-0.006355
-0.007418
-0.008481
-0.009543
-0.010605
-0.011666
-0.012726
-0.013786
-0.014845
-0.015903
-0.016961
-0.018019
-0.019076
-0.020134
-0.021192
-0.022252
-0.023312
-0.024375
-0.025440
-0.026508
-0.027580
-0.028656
-0.029738
-0.030826
-0.031920
-0.033016
-0.034111
-0.035193
-0.036239
-0.037209
-0.038214
0.289927
0.287226
0.279387
0.265952
0.246004
0.218200
0.181044
0.133494
0.076066
0.011608
-0.051535
-0.107661
-0.155106
-0.194437
-0.226655
-0.252026
-0.269972
-0.279110
-0.278946
-0.270016
-0.253841
-0.232513
-0.208215
-0.182867
-0.157948
-0.134469
-0.113021
-0.093866
-0.077041
-0.062443
-0.049896
-0.039193
-0.030119
-0.022462
-0.016024
-0.010623
-0.006094
-0.002291
0.000918
0.003601
0.005824
0.007647
0.009113
0.010255
0.011099
0.011673
0.012000
0.012107
0.012019
0.011762
0.011358
0.010830
0.010198
0.009479
0.008688
0.007840
0.006944
0.006010
0.005046
0.004057
0.003050
0.002028
0.000995
-0.000046
-0.001094
-0.002147
-0.003203
-0.004261
-0.005321
-0.006381
-0.007441
-0.008502
-0.009562
-0.010622
-0.011681
-0.012739
-0.013797
-0.014854
-0.015910
-0.016966
-0.018021
-0.019075
-0.020130
-0.021185
-0.022239
-0.023294
-0.024350
-0.025407
-0.026464
-0.027523
-0.028583
-0.029644
-0.030704
-0.031762
-0.032814
-0.033852
-0.034866
-0.035835
-0.036734
-0.037714
0.310476
0.308198
0.301405
0.289270
0.270254
0.242004
0.201481
0.145737
0.073992
-0.010939
-0.089149
-0.152350
-0.201619
-0.240943
-0.273731
-0.300919
-0.320364
-0.329858
-0.327718
-0.314267
-0.291669
-0.262966
-0.231187
-0.198836
-0.167730
-0.139027
-0.113357
-0.090958
-0.071803
-0.055698
-0.042355
-0.031437
-0.022595
-0.015480
-0.009769
-0.005172
-0.001441
0.001623
0.004169
0.006287
0.008026
0.009445
0.010577
0.011444
0.012062
0.012448
0.012620
0.012598
0.012403
0.012057
0.011580
0.010993
0.010313
0.009555
0.008735
0.007862
0.006949
0.006001
0.005027
0.004032
0.003020
0.001996
0.000961
-0.000081
-0.001128
-0.002180
-0.003234
-0.004291
-0.005349
-0.006407
-0.007466
-0.008524
-0.009582
-0.010640
-0.011697
-0.012753
-0.013809
-0.014863
-0.015917
-0.016971
-0.018023
-0.019075
-0.020126
-0.021177
-0.022227
-0.023276
-0.024325
-0.025373
-0.026420
-0.027465
-0.028509
-0.029549
-0.030584
-0.031611
-0.032625
-0.033619
-0.034582
-0.035501
-0.036359
-0.037321
0.335251
0.333570
0.328394
0.318603
0.302018
0.274946
0.231767
0.165377
0.070380
-0.053318
-0.151613
-0.217528
-0.262240
-0.296780
-0.328634
-0.359747
-0.384593
-0.396428
-0.392359
-0.372526
-0.340624
-0.301498
-0.259550
-0.218088
-0.179275
-0.144340
-0.113835
-0.087858
-0.066221
-0.048568
-0.034444
-0.023351
-0.014781
-0.008240
-0.003274
0.000513
0.003446
0.005773
0.007668
0.009205
0.010447
0.011447
0.012231
0.012807
0.013183
0.013365
0.013365
0.013197
0.012879
0.012430
0.011868
0.011210
0.010472
0.009668
0.008811
0.007909
0.006973
0.006008
0.005021
0.004016
0.002998
0.001969
0.000932
-0.000112
-0.001160
-0.002211
-0.003265
-0.004320
-0.005377
-0.006433
-0.007490
-0.008547
-0.009603
-0.010659
-0.011714
-0.012768
-0.013822
-0.014874
-0.015926
-0.016977
-0.018026
-0.019075
-0.020123
-0.021169
-0.022214
-0.023258
-0.024300
-0.025339
-0.026376
-0.027409
-0.028438
-0.029460
-0.030472
-0.031473
-0.032456
-0.033415
-0.034343
-0.035228
-0.036060
-0.037012
0.363134
0.362318
0.359594
0.353741
0.342167
0.319847
0.277529
0.199736
0.065045
-0.137880
-0.252880
-0.303344
-0.329174
-0.349871
-0.377447
-0.416330
-0.456477
-0.476887
-0.472297
-0.444206
-0.399792
-0.347040
-0.292314
-0.239841
-0.192050
-0.150095
-0.114312
-0.084548
-0.060371
-0.041195
-0.026358
-0.015167
-0.006937
-0.001018
0.003177
0.006149
0.008297
0.009914
0.011195
0.012160
0.012918
0.013516
0.013964
0.014258
0.014393
0.014368
0.014189
0.013868
0.013418
0.012857
0.012201
0.011465
0.010663
0.009807
0.008907
0.007973
0.007010
0.006025
0.005023
0.004007
0.002980
0.001945
0.000904
-0.000141
-0.001191
-0.002242
-0.003296
-0.004350
-0.005405
-0.006460
-0.007516
-0.008570
-0.009625
-0.010679
-0.011732
-0.012784
-0.013835
-0.014886
-0.015935
-0.016984
-0.018031
-0.019076
-0.020121
-0.021163
-0.022204
-0.023242
-0.024277
-0.025309
-0.026337
-0.027359
-0.028373
-0.029379
-0.030373
-0.031352
-0.032311
-0.033244
-0.034146
-0.035008
-0.035823
-0.036769
0.392517
0.392840
0.393458
0.393403
0.390350
0.378962
0.346918
0.265743
0.063670
-0.319491
-0.404180
-0.394343
-0.384365
-0.381986
-0.399323
-0.446568
-0.513154
-0.558166
-0.556219
-0.519284
-0.460761
-0.393080
-0.324848
-0.261090
-0.204316
-0.155465
-0.114579
-0.081211
-0.054664
-0.034114
-0.018685
-0.007486
0.000347
0.005622
0.009057
0.011257
0.012690
0.013686
0.014418
0.014868
0.015216
0.015478
0.015645
0.015695
0.015614
0.015396
0.015045
0.014571
0.013988
0.013312
0.012558
0.011740
0.010870
0.009959
0.009015
0.008045
0.007054
0.006048
0.005029
0.004001
0.002965
0.001924
0.000878
-0.000170
-0.001221
-0.002273
-0.003326
-0.004380
-0.005434
-0.006488
-0.007542
-0.008595
-0.009647
-0.010699
-0.011750
-0.012801
-0.013850
-0.014898
-0.015946
-0.016992
-0.018036
-0.019079
-0.020120
-0.021159
-0.022196
-0.023229
-0.024258
-0.025283
-0.026303
-0.027315
-0.028318
-0.029311
-0.030289
-0.031251
-0.032191
-0.033106
-0.033989
-0.034835
-0.035640
-0.036582
0.421285
0.422906
0.427436
0.434582
0.443328
0.450481
0.446136
0.397812
0.161373
-0.656184
-0.578412
-0.447728
-0.411531
-0.391686
-0.399449
-0.451395
-0.532960
-0.606674
-0.617463
-0.574599
-0.505240
-0.426247
-0.348014
-0.276002
-0.212665
-0.158748
-0.114082
-0.078032
-0.049733
-0.028207
-0.012422
-0.001335
0.006069
0.010735
0.013502
0.015068
0.015969
0.016574
0.016787
0.016924
0.017039
0.017116
0.017115
0.017003
0.016761
0.016384
0.015881
0.015265
0.014554
0.013765
0.012914
0.012014
0.011077
0.010111
0.009122
0.008117
0.007098
0.006070
0.005035
0.003994
0.002950
0.001902
0.000852
-0.000200
-0.001252
-0.002305
-0.003358
-0.004411
-0.005464
-0.006516
-0.007569
-0.008620
-0.009671
-0.010721
-0.011770
-0.012819
-0.013866
-0.014912
-0.015958
-0.017001
-0.018043
-0.019084
-0.020122
-0.021158
-0.022190
-0.023219
-0.024244
-0.025263
-0.026275
-0.027280
-0.028274
-0.029256
-0.030222
-0.031171
-0.032098
-0.032998
-0.033868
-0.034704
-0.035502
-0.036442
0.447033
0.449873
0.458134
0.472384
0.493540
0.522691
0.560244
0.601926
0.681650
0.012733
-0.503602
-0.428792
-0.420291
-0.411349
-0.419921
-0.465760
-0.539865
-0.607388
-0.632828
-0.589453
-0.516115
-0.433536
-0.352451
-0.278143
-0.212937
-0.157510
-0.111667
-0.074779
-0.045988
-0.024304
-0.008657
0.002062
0.008960
0.013079
0.015345
0.016528
0.017210
0.017592
0.017663
0.017839
0.018041
0.018186
0.018205
0.018062
0.017744
0.017263
0.016642
0.015905
0.015079
0.014187
0.013246
0.012269
0.011268
0.010249
0.009219
0.008180
0.007136
0.006087
0.005037
0.003984
0.002931
0.001877
0.000823
-0.000231
-0.001285
-0.002338
-0.003391
-0.004443
-0.005495
-0.006546
-0.007597
-0.008646
-0.009695
-0.010744
-0.011791
-0.012838
-0.013883
-0.014928
-0.015971
-0.017013
-0.018053
-0.019091
-0.020126
-0.021159
-0.022189
-0.023215
-0.024235
-0.025250
-0.026257
-0.027255
-0.028242
-0.029216
-0.030174
-0.031113
-0.032030
-0.032921
-0.033783
-0.034612
-0.035405
-0.036345
0.467502
0.471204
0.482097
0.501307
0.530979
0.574814
0.639178
0.734825
0.868893
0.889580
0.000000
-0.429002
-0.429211
-0.433344
-0.448906
-0.488427
-0.540097
-0.583119
-0.593990
-0.560113
-0.488878
-0.410268
-0.333623
-0.263426
-0.201764
-0.149235
-0.105693
-0.070620
-0.043292
-0.022831
-0.008235
0.001584
0.007751
0.011343
0.013312
0.014467
0.015376
0.015762
0.016436
0.017227
0.017960
0.018503
0.018779
0.018766
0.018482
0.017968
0.017274
0.016448
0.015529
0.014548
0.013528
0.012484
0.011426
0.010362
0.009294
0.008226
0.007159
0.006093
0.005029
0.003967
0.002907
0.001848
0.000791
-0.000265
-0.001320
-0.002373
-0.003425
-0.004477
-0.005527
-0.006577
-0.007626
-0.008674
-0.009721
-0.010767
-0.011813
-0.012858
-0.013901
-0.014944
-0.015985
-0.017025
-0.018064
-0.019100
-0.020134
-0.021164
-0.022192
-0.023215
-0.024232
-0.025243
-0.026247
-0.027241
-0.028223
-0.029192
-0.030144
-0.031077
-0.031988
-0.032874
-0.033730
-0.034555
-0.035346
-0.036287
0.481093
0.485121
0.496967
0.517762
0.549529
0.595269
0.658394
0.739971
0.832304
0.910267
0.821133
0.000000
-0.442958
-0.456704
-0.471464
-0.504064
-0.536856
-0.551911
-0.536888
-0.491649
-0.430239
-0.360050
-0.292338
-0.230940
-0.177465
-0.132118
-0.094628
-0.064528
-0.041205
-0.023897
-0.011707
-0.003628
0.001431
0.004511
0.006478
0.008155
0.009471
0.011244
0.013239
0.015179
0.016837
0.018065
0.018803
0.019067
0.018919
0.018445
0.017730
0.016851
0.015866
0.014818
0.013737
0.012639
0.011537
0.010436
0.009339
0.008248
0.007163
0.006083
0.005009
0.003940
0.002874
0.001812
0.000753
-0.000304
-0.001358
-0.002411
-0.003462
-0.004512
-0.005561
-0.006609
-0.007656
-0.008702
-0.009748
-0.010792
-0.011836
-0.012879
-0.013921
-0.014962
-0.016002
-0.017040
-0.018077
-0.019112
-0.020144
-0.021173
-0.022199
-0.023220
-0.024236
-0.025245
-0.026246
-0.027238
-0.028218
-0.029184
-0.030134
-0.031064
-0.031972
-0.032855
-0.033709
-0.034533
-0.035323
-0.036265
0.487190
0.491007
0.502161
0.521409
0.549942
0.589166
0.640280
0.701830
0.761127
0.775765
0.731999
0.608034
0.000000
-0.475820
-0.494936
-0.531445
-0.553360
-0.537392
-0.489795
-0.424404
-0.354210
-0.289741
-0.232702
-0.182466
-0.140444
-0.105814
-0.077881
-0.056025
-0.039539
-0.027615
-0.019363
-0.013893
-0.010149
-0.007220
-0.004734
-0.001821
0.001625
0.005346
0.009026
0.012350
0.015082
0.017099
0.018380
0.018989
0.019038
0.018656
0.017967
0.017074
0.016057
0.014971
0.013850
0.012718
0.011586
0.010460
0.009344
0.008238
0.007141
0.006054
0.004973
0.003900
0.002832
0.001769
0.000709
-0.000347
-0.001401
-0.002452
-0.003502
-0.004550
-0.005597
-0.006643
-0.007688
-0.008732
-0.009775
-0.010818
-0.011860
-0.012901
-0.013942
-0.014981
-0.016019
-0.017056
-0.018092
-0.019126
-0.020157
-0.021185
-0.022210
-0.023231
-0.024246
-0.025255
-0.026256
-0.027247
-0.028227
-0.029193
-0.030142
-0.031073
-0.031981
-0.032864
-0.033719
-0.034544
-0.035335
-0.036278
0.486180
0.489416
0.498798
0.514696
0.537565
0.567522
0.603174
0.639559
0.663331
0.648236
0.577682
0.484068
0.304206
0.000000
-0.545606
-0.596275
-0.605170
-0.548278
-0.461075
-0.367189
-0.281912
-0.212463
-0.161335
-0.122646
-0.093909
-0.072337
-0.056695
-0.045954
-0.038906
-0.034300
-0.030987
-0.028387
-0.025420
-0.021886
-0.016897
-0.011503
-0.005825
-0.000191
0.005044
0.009586
0.013239
0.015927
0.017680
0.018604
0.018852
0.018586
0.017956
0.017089
0.016076
0.014982
0.013851
0.012706
0.011563
0.010428
0.009304
0.008192
0.007092
0.006001
0.004920
0.003846
0.002778
0.001716
0.000658
-0.000396
-0.001448
-0.002497
-0.003544
-0.004590
-0.005635
-0.006678
-0.007721
-0.008763
-0.009804
-0.010845
-0.011885
-0.012924
-0.013963
-0.015001
-0.016038
-0.017074
-0.018109
-0.019142
-0.020173
-0.021201
-0.022226
-0.023247
-0.024263
-0.025273
-0.026275
-0.027268
-0.028250
-0.029218
-0.030170
-0.031104
-0.032016
-0.032902
-0.033760
-0.034587
-0.035381
-0.036326
0.479136
0.481568
0.488534
0.500001
0.515691
0.534601
0.554066
0.568228
0.565826
0.528989
0.439571
0.285878
0.124344
-0.338697
-0.703491
-0.665173
-0.633474
-0.549461
-0.436346
-0.321559
-0.222902
-0.147651
-0.094272
-0.061118
-0.046305
-0.037934
-0.035638
-0.037585
-0.041334
-0.044621
-0.045408
-0.044743
-0.039921
-0.033349
-0.026119
-0.018615
-0.011177
-0.004157
0.002130
0.007448
0.011670
0.014774
0.016830
0.017976
0.018385
0.018236
0.017690
0.016880
0.015907
0.014840
0.013727
0.012595
0.011461
0.010333
0.009214
0.008107
0.007011
0.005925
0.004847
0.003777
0.002713
0.001654
0.000600
-0.000451
-0.001499
-0.002545
-0.003590
-0.004632
-0.005674
-0.006715
-0.007755
-0.008795
-0.009834
-0.010872
-0.011911
-0.012948
-0.013986
-0.015023
-0.016059
-0.017094
-0.018128
-0.019161
-0.020192
-0.021220
-0.022246
-0.023268
-0.024286
-0.025298
-0.026303
-0.027299
-0.028286
-0.029259
-0.030217
-0.031157
-0.032075
-0.032968
-0.033833
-0.034665
-0.035462
-0.036410
0.467534
0.469065
0.473373
0.480135
0.488599
0.497180
0.502786
0.499861
0.479270
0.427443
0.326193
0.149206
-0.159653
-0.801738
-0.741810
-0.646648
-0.585954
-0.498988
-0.391531
-0.281871
-0.185453
-0.110595
-0.058967
-0.027915
-0.016052
-0.015716
-0.023974
-0.036750
-0.049234
-0.058184
-0.059429
-0.054204
-0.047612
-0.039525
-0.030866
-0.022175
-0.013851
-0.006220
0.000466
0.006044
0.010444
0.013688
0.015870
0.017138
0.017665
0.017627
0.017181
0.016457
0.015556
0.014548
0.013481
0.012386
0.011280
0.010175
0.009075
0.007983
0.006899
0.005824
0.004755
0.003693
0.002636
0.001583
0.000534
-0.000512
-0.001556
-0.002597
-0.003638
-0.004677
-0.005715
-0.006753
-0.007790
-0.008827
-0.009864
-0.010900
-0.011937
-0.012973
-0.014009
-0.015045
-0.016080
-0.017115
-0.018148
-0.019181
-0.020213
-0.021242
-0.022269
-0.023294
-0.024314
-0.025330
-0.026339
-0.027342
-0.028334
-0.029316
-0.030282
-0.031232
-0.032160
-0.033063
-0.033937
-0.034778
-0.035581
-0.036531
0.453039
0.453701
0.455481
0.457905
0.460011
0.460056
0.455076
0.440343
0.408789
0.350518
0.252142
0.095190
-0.145623
-0.460153
-0.538126
-0.523273
-0.479005
-0.414513
-0.333867
-0.248962
-0.171053
-0.107517
-0.061360
-0.032158
-0.016212
-0.016842
-0.028848
-0.045156
-0.058783
-0.062728
-0.061447
-0.056017
-0.048653
-0.040184
-0.031312
-0.022549
-0.014281
-0.006792
-0.000284
0.005128
0.009407
0.012590
0.014775
0.016099
0.016718
0.016791
0.016460
0.015846
0.015043
0.014119
0.013123
0.012085
0.011026
0.009959
0.008889
0.007822
0.006758
0.005699
0.004645
0.003594
0.002547
0.001503
0.000461
-0.000578
-0.001616
-0.002653
-0.003688
-0.004723
-0.005758
-0.006792
-0.007826
-0.008860
-0.009895
-0.010929
-0.011963
-0.012998
-0.014033
-0.015067
-0.016102
-0.017136
-0.018170
-0.019203
-0.020235
-0.021266
-0.022296
-0.023323
-0.024347
-0.025368
-0.026384
-0.027393
-0.028395
-0.029386
-0.030365
-0.031328
-0.032270
-0.033188
-0.034075
-0.034927
-0.035739
-0.036693
0.437260
0.437161
0.436755
0.435535
0.432532
0.426122
0.413774
0.391783
0.355073
0.297179
0.210526
0.087630
-0.073486
-0.251794
-0.347182
-0.375433
-0.362892
-0.326331
-0.274753
-0.216796
-0.160613
-0.112176
-0.074697
-0.048877
-0.034185
-0.032809
-0.040112
-0.049999
-0.056190
-0.058232
-0.056401
-0.051564
-0.044890
-0.037193
-0.029104
-0.021098
-0.013532
-0.006667
-0.000678
0.004335
0.008341
0.011372
0.013508
0.014863
0.015569
0.015760
0.015561
0.015077
0.014394
0.013575
0.012669
0.011706
0.010708
0.009691
0.008662
0.007628
0.006592
0.005554
0.004518
0.003482
0.002448
0.001415
0.000382
-0.000649
-0.001680
-0.002710
-0.003741
-0.004771
-0.005801
-0.006832
-0.007863
-0.008894
-0.009926
-0.010958
-0.011990
-0.013023
-0.014056
-0.015090
-0.016124
-0.017158
-0.018192
-0.019226
-0.020259
-0.021292
-0.022325
-0.023355
-0.024384
-0.025411
-0.026434
-0.027453
-0.028465
-0.029470
-0.030464
-0.031444
-0.032405
-0.033342
-0.034249
-0.035118
-0.035942
-0.036901
0.421612
0.420885
0.418703
0.414611
0.407765
0.396808
0.379750
0.353894
0.315859
0.261847
0.188330
0.093609
-0.018602
-0.133582
-0.214206
-0.255064
-0.263879
-0.250046
-0.221554
-0.185335
-0.147490
-0.112765
-0.084190
-0.063181
-0.050065
-0.045540
-0.046835
-0.050047
-0.052310
-0.052396
-0.050090
-0.045739
-0.039953
-0.033307
-0.026291
-0.019301
-0.012644
-0.006548
-0.001173
0.003386
0.007092
0.009960
0.012047
0.013441
0.014245
0.014570
0.014518
0.014181
0.013635
0.012939
0.012137
0.011263
0.010339
0.009382
0.008402
0.007408
0.006403
0.005393
0.004378
0.003361
0.002341
0.001320
0.000299
-0.000724
-0.001747
-0.002770
-0.003795
-0.004820
-0.005846
-0.006872
-0.007899
-0.008928
-0.009956
-0.010986
-0.012017
-0.013048
-0.014080
-0.015112
-0.016146
-0.017180
-0.018214
-0.019249
-0.020284
-0.021319
-0.022355
-0.023390
-0.024424
-0.025457
-0.026489
-0.027518
-0.028544
-0.029564
-0.030577
-0.031578
-0.032564
-0.033528
-0.034461
-0.035353
-0.036195
-0.037162
0.407263
0.406027
0.402439
0.396164
0.386550
0.372558
0.352731
0.325221
0.287928
0.238834
0.176654
0.101950
0.018880
-0.063096
-0.128070
-0.169539
-0.188540
-0.189414
-0.177006
-0.156547
-0.132580
-0.108820
-0.087901
-0.071375
-0.059918
-0.053569
-0.051037
-0.050279
-0.049583
-0.047960
-0.045039
-0.040871
-0.035737
-0.029984
-0.023945
-0.017912
-0.012124
-0.006767
-0.001978
0.002156
0.005590
0.008323
0.010388
0.011844
0.012769
0.013247
0.013361
0.013188
0.012794
0.012234
0.011549
0.010774
0.009932
0.009042
0.008117
0.007168
0.006200
0.005219
0.004229
0.003231
0.002229
0.001222
0.000212
-0.000800
-0.001815
-0.002831
-0.003849
-0.004869
-0.005890
-0.006912
-0.007936
-0.008961
-0.009987
-0.011014
-0.012042
-0.013072
-0.014103
-0.015134
-0.016167
-0.017201
-0.018236
-0.019272
-0.020309
-0.021346
-0.022385
-0.023424
-0.024465
-0.025505
-0.026547
-0.027588
-0.028628
-0.029666
-0.030701
-0.031729
-0.032745
-0.033743
-0.034713
-0.035640
-0.036508
-0.037488
0.395160
0.393484
0.388742
0.380790
0.369201
0.353246
0.331914
0.304009
0.268309
0.223876
0.170534
0.109541
0.044360
-0.018939
-0.072354
-0.111079
-0.134196
-0.143391
-0.141481
-0.131864
-0.117871
-0.102361
-0.087520
-0.074791
-0.064929
-0.058058
-0.053590
-0.050515
-0.047859
-0.044948
-0.041447
-0.037291
-0.032587
-0.027520
-0.022293
-0.017094
-0.012087
-0.007404
-0.003148
0.000606
0.003811
0.006450
0.008531
0.010085
0.011161
0.011817
0.012119
0.012128
0.011900
0.011486
0.010928
0.010258
0.009504
0.008686
0.007819
0.006917
0.005988
0.005039
0.004074
0.003098
0.002113
0.001121
0.000124
-0.000878
-0.001884
-0.002892
-0.003904
-0.004918
-0.005934
-0.006952
-0.007971
-0.008993
-0.010016
-0.011041
-0.012067
-0.013095
-0.014125
-0.015155
-0.016188
-0.017222
-0.018257
-0.019294
-0.020332
-0.021373
-0.022415
-0.023458
-0.024505
-0.025553
-0.026604
-0.027658
-0.028714
-0.029772
-0.030832
-0.031891
-0.032945
-0.033988
-0.035008
-0.035985
-0.036895
-0.037893
0.386126
0.383960
0.378122
0.368768
0.355711
0.338469
0.316366
0.288655
0.254682
0.214120
0.167302
0.115586
0.061681
0.009626
-0.035912
-0.071567
-0.096026
-0.109757
-0.114353
-0.111926
-0.104854
-0.095307
-0.085050
-0.075354
-0.066978
-0.060200
-0.054854
-0.050491
-0.046608
-0.042805
-0.038851
-0.034664
-0.030273
-0.025763
-0.021237
-0.016790
-0.012504
-0.008449
-0.004685
-0.001267
0.001758
0.004354
0.006500
0.008197
0.009461
0.010327
0.010838
0.011043
0.010992
0.010732
0.010303
0.009741
0.009075
0.008329
0.007521
0.006667
0.005776
0.004859
0.003920
0.002965
0.001998
0.001021
0.000036
-0.000955
-0.001952
-0.002953
-0.003957
-0.004965
-0.005976
-0.006990
-0.008006
-0.009024
-0.010044
-0.011067
-0.012091
-0.013117
-0.014145
-0.015175
-0.016207
-0.017241
-0.018276
-0.019314
-0.020354
-0.021397
-0.022442
-0.023490
-0.024542
-0.025598
-0.026659
-0.027725
-0.028798
-0.029877
-0.030964
-0.032058
-0.033157
-0.034256
-0.035344
-0.036399
-0.037379
-0.038402
0.381081
0.378050
0.370852
0.360130
0.345870
0.327726
0.305214
0.277871
0.245381
0.207749
0.165516
0.119959
0.073207
0.028116
-0.012223
-0.045364
-0.070018
-0.086159
-0.094662
-0.096850
-0.094410
-0.088992
-0.082018
-0.074583
-0.067428
-0.060943
-0.055217
-0.050133
-0.045491
-0.041102
-0.036842
-0.032658
-0.028552
-0.024547
-0.020665
-0.016919
-0.013309
-0.009835
-0.006511
-0.003370
-0.000463
0.002151
0.004419
0.006303
0.007789
0.008885
0.009616
0.010020
0.010143
0.010030
0.009723
0.009261
0.008677
0.007997
0.007243
0.006432
0.005577
0.004689
0.003774
0.002839
0.001889
0.000926
-0.000047
-0.001028
-0.002016
-0.003009
-0.004008
-0.005010
-0.006016
-0.007025
-0.008037
-0.009052
-0.010070
-0.011090
-0.012112
-0.013137
-0.014164
-0.015193
-0.016224
-0.017257
-0.018293
-0.019332
-0.020374
-0.021418
-0.022466
-0.023519
-0.024576
-0.025638
-0.026708
-0.027786
-0.028874
-0.029974
-0.031088
-0.032219
-0.033368
-0.034535
-0.035714
-0.036885
-0.037997
-0.039045
0.381659
0.376198
0.366893
0.354666
0.339346
0.320524
0.297749
0.270715
0.239292
0.203652
0.164408
0.122724
0.080347
0.039465
0.002367
-0.029029
-0.053451
-0.070893
-0.081648
-0.086623
-0.087072
-0.084292
-0.079457
-0.073533
-0.067232
-0.061017
-0.055132
-0.049656
-0.044578
-0.039850
-0.035432
-0.031301
-0.027448
-0.023856
-0.020492
-0.017304
-0.014225
-0.011200
-0.008203
-0.005251
-0.002400
0.000269
0.002673
0.004742
0.006433
0.007732
0.008651
0.009221
0.009485
0.009489
0.009277
0.008893
0.008370
0.007740
0.007027
0.006248
0.005420
0.004554
0.003658
0.002738
0.001801
0.000849
-0.000115
-0.001088
-0.002068
-0.003056
-0.004049
-0.005046
-0.006048
-0.007054
-0.008063
-0.009075
-0.010091
-0.011109
-0.012129
-0.013152
-0.014178
-0.015206
-0.016237
-0.017270
-0.018307
-0.019346
-0.020389
-0.021435
-0.022485
-0.023541
-0.024603
-0.025671
-0.026748
-0.027836
-0.028937
-0.030055
-0.031194
-0.032359
-0.033557
-0.034796
-0.036082
-0.037419
-0.038785
-0.039809
0.392323
0.378033
0.365645
0.352085
0.336006
0.316694
0.293749
0.266890
0.236054
0.201473
0.163768
0.124022
0.083781
0.044921
0.009374
-0.021252
-0.045999
-0.064042
-0.075721
-0.081868
-0.083561
-0.081945
-0.078090
-0.072899
-0.067071
-0.061091
-0.055257
-0.049718
-0.044530
-0.039697
-0.035212
-0.031065
-0.027246
-0.023733
-0.020480
-0.017423
-0.014484
-0.011594
-0.008716
-0.005856
-0.003065
-0.000420
0.001992
0.004095
0.005840
0.007203
0.008191
0.008828
0.009154
0.009213
0.009049
0.008705
0.008215
0.007612
0.006920
0.006160
0.005346
0.004491
0.003604
0.002693
0.001762
0.000815
-0.000144
-0.001113
-0.002091
-0.003075
-0.004066
-0.005062
-0.006062
-0.007066
-0.008074
-0.009085
-0.010099
-0.011117
-0.012137
-0.013159
-0.014184
-0.015212
-0.016243
-0.017276
-0.018312
-0.019352
-0.020395
-0.021443
-0.022496
-0.023554
-0.024618
-0.025689
-0.026771
-0.027864
-0.028973
-0.030101
-0.031255
-0.032442
-0.033672
-0.034960
-0.036327
-0.037808
-0.039447
-0.040353
