# vtk DataFile Version 3.0
Vector Field
ASCII
DATASET RECTILINEAR_GRID
DIMENSIONS 100 26 1
X_COORDINATES 100 double
0.050000 0.150000 0.250000 0.350000 0.450000 0.550000 0.650000 0.750000 0.850000 0.950000 1.050000 1.150000 1.250000 1.350000 1.450000 1.550000 1.650000 1.750000 1.850000 1.950000 2.050000 2.150000 2.250000 2.350000 2.450000 2.550000 2.650000 2.750000 2.850000 2.950000 3.050000 3.150000 3.250000 3.350000 3.450000 3.550000 3.650000 3.750000 3.850000 3.950000 4.050000 4.150000 4.250000 4.350000 4.450000 4.550000 4.650000 4.750000 4.850000 4.950000 5.050000 5.150000 5.250000 5.350000 5.450000 5.550000 5.650000 5.750000 5.850000 5.950000 6.050000 6.150000 6.250000 6.350000 6.450000 6.550000 6.650000 6.750000 6.850000 6.950000 7.050000 7.150000 7.250000 7.350000 7.450000 7.550000 7.650000 7.750000 7.850000 7.950000 8.050000 8.150000 8.250000 8.350000 8.450000 8.550000 8.650000 8.750000 8.850000 8.950000 9.050000 9.150000 9.250000 9.350000 9.450000 9.550000 9.650000 9.750000 9.850000 9.950000 
Y_COORDINATES 26 double
0.050000 0.150000 0.250000 0.350000 0.450000 0.550000 0.650000 0.750000 0.850000 0.950000 1.050000 1.150000 1.250000 1.350000 1.450000 1.550000 1.650000 1.750000 1.850000 1.950000 2.050000 2.150000 2.250000 2.350000 2.450000 2.550000 
Z_COORDINATES 1 double
0.0
POINT_DATA 2600
VECTORS Vektorfeld double
0.997632 0.002368 0.0
0.992740 0.002524 0.0
0.989129 0.001087 0.0
0.989106 -0.001064 0.0
0.993703 -0.003533 0.0
1.003298 -0.006063 0.0
1.017763 -0.008402 0.0
1.036458 -0.010293 0.0
1.058247 -0.011496 0.0
1.081598 -0.011855 0.0
1.104805 -0.011353 0.0
1.126258 -0.010100 0.0
1.144623 -0.008264 0.0
1.158896 -0.006009 0.0
1.168369 -0.003464 0.0
1.172628 -0.000795 0.0
1.171541 0.001882 0.0
1.164950 0.004710 0.0
1.152548 0.007693 0.0
1.134073 0.010782 0.0
1.109406 0.013885 0.0
1.078651 0.016870 0.0
1.042189 0.019592 0.0
1.000696 0.021901 0.0
0.955128 0.023667 0.0
0.906681 0.024780 0.0
0.856741 0.025160 0.0
0.806825 0.024756 0.0
0.758517 0.023551 0.0
0.713403 0.021564 0.0
0.672985 0.018854 0.0
0.638603 0.015527 0.0
0.611357 0.011719 0.0
0.592116 0.007521 0.0
0.581789 0.002806 0.0
0.580986 -0.002003 0.0
0.588435 -0.005447 0.0
0.601137 -0.007254 0.0
0.615969 -0.007578 0.0
0.630222 -0.006674 0.0
0.641763 -0.004867 0.0
0.649182 -0.002553 0.0
0.651607 0.000129 0.0
0.647707 0.003771 0.0
0.635831 0.008105 0.0
0.615097 0.012629 0.0
0.585612 0.016855 0.0
0.548381 0.020376 0.0
0.505182 0.022822 0.0
0.458665 0.023695 0.0
0.412723 0.022247 0.0
0.372592 0.017884 0.0
0.343594 0.011114 0.0
0.328508 0.003972 0.0
0.325559 -0.001022 0.0
0.329679 -0.003098 0.0
0.336691 -0.003914 0.0
0.345072 -0.004467 0.0
0.354203 -0.004664 0.0
0.363330 -0.004463 0.0
0.371741 -0.003949 0.0
0.378920 -0.003230 0.0
0.384566 -0.002415 0.0
0.388574 -0.001593 0.0
0.390993 -0.000826 0.0
0.391899 -0.000080 0.0
0.391071 0.000907 0.0
0.388024 0.002140 0.0
0.382515 0.003368 0.0
0.374792 0.004355 0.0
0.365509 0.004928 0.0
0.355618 0.004962 0.0
0.346225 0.004430 0.0
0.338335 0.003460 0.0
0.332540 0.002335 0.0
0.328797 0.001408 0.0
0.326418 0.000970 0.0
0.324326 0.001122 0.0
0.321471 0.001733 0.0
0.317233 0.002505 0.0
0.311618 0.003110 0.0
0.305182 0.003327 0.0
0.298737 0.003118 0.0
0.293003 0.002617 0.0
0.288351 0.002035 0.0
0.284767 0.001549 0.0
0.281990 0.001227 0.0
0.279727 0.001036 0.0
0.277791 0.000899 0.0
0.276203 0.000689 0.0
0.275171 0.000343 0.0
0.274966 -0.000138 0.0
0.275712 -0.000608 0.0
0.277229 -0.000909 0.0
0.279114 -0.000977 0.0
0.280906 -0.000816 0.0
0.282196 -0.000474 0.0
0.282711 -0.000042 0.0
0.282398 0.000355 0.0
0.280516 0.001528 0.0
1.002922 0.001814 0.0
1.011306 -0.000414 0.0
1.024273 -0.005330 0.0
1.041314 -0.011665 0.0
1.062486 -0.018701 0.0
1.087832 -0.025837 0.0
1.117158 -0.032418 0.0
1.149896 -0.037710 0.0
1.185046 -0.041016 0.0
1.221206 -0.041846 0.0
1.256806 -0.040170 0.0
1.290440 -0.036370 0.0
1.321071 -0.030989 0.0
1.348032 -0.024518 0.0
1.370902 -0.017298 0.0
1.389247 -0.009566 0.0
1.402410 -0.001423 0.0
1.409788 0.007228 0.0
1.410959 0.016406 0.0
1.405562 0.025940 0.0
1.393423 0.035533 0.0
1.374614 0.044786 0.0
1.349505 0.053247 0.0
1.318777 0.060467 0.0
1.283398 0.066047 0.0
1.244588 0.069657 0.0
1.203758 0.071053 0.0
1.162455 0.070083 0.0
1.122293 0.066694 0.0
1.084881 0.060947 0.0
1.051743 0.053026 0.0
1.024235 0.043245 0.0
1.003459 0.032025 0.0
0.990124 0.019790 0.0
0.984098 0.006889 0.0
0.984247 -0.005430 0.0
0.989853 -0.015075 0.0
1.000976 -0.021451 0.0
1.017248 -0.024486 0.0
1.037423 -0.024194 0.0
1.059180 -0.020644 0.0
1.079060 -0.014076 0.0
1.093097 -0.004811 0.0
1.098670 0.007038 0.0
1.094725 0.020661 0.0
1.080880 0.034653 0.0
1.057555 0.047641 0.0
1.025957 0.058420 0.0
0.988049 0.065885 0.0
0.946392 0.068806 0.0
0.903646 0.065825 0.0
0.861718 0.056365 0.0
0.821206 0.042144 0.0
0.782107 0.027128 0.0
0.746125 0.014753 0.0
0.717988 0.005144 0.0
0.701963 -0.003143 0.0
0.697692 -0.009348 0.0
0.701719 -0.012942 0.0
0.711071 -0.014663 0.0
0.723969 -0.015058 0.0
0.739150 -0.014481 0.0
0.755515 -0.013175 0.0
0.771952 -0.011278 0.0
0.787224 -0.008831 0.0
0.800038 -0.005794 0.0
0.809641 -0.002153 0.0
0.816211 0.001678 0.0
0.820345 0.005205 0.0
0.822585 0.008002 0.0
0.823429 0.009721 0.0
0.823268 0.010221 0.0
0.822177 0.009655 0.0
0.819802 0.008500 0.0
0.815449 0.007444 0.0
0.808350 0.007142 0.0
0.798008 0.007958 0.0
0.784431 0.009803 0.0
0.768203 0.012134 0.0
0.750416 0.014129 0.0
0.732491 0.015026 0.0
0.715922 0.014417 0.0
0.701974 0.012421 0.0
0.691399 0.009622 0.0
0.684295 0.006785 0.0
0.680204 0.004475 0.0
0.678431 0.002851 0.0
0.678393 0.001714 0.0
0.679811 0.000738 0.0
0.682523 -0.000273 0.0
0.686304 -0.001443 0.0
0.690789 -0.002633 0.0
0.695493 -0.003562 0.0
0.699974 -0.003952 0.0
0.703826 -0.003670 0.0
0.706647 -0.002736 0.0
0.708088 -0.001284 0.0
0.707821 0.000519 0.0
0.705519 0.002409 0.0
0.702138 0.004737 0.0
1.001825 -0.002933 0.0
1.008351 -0.010579 0.0
1.020267 -0.020048 0.0
1.037160 -0.030882 0.0
1.059042 -0.042538 0.0
1.085995 -0.054299 0.0
1.117905 -0.065191 0.0
1.154218 -0.073989 0.0
1.193752 -0.079422 0.0
1.234617 -0.080464 0.0
1.274609 -0.077144 0.0
1.311929 -0.070351 0.0
1.345488 -0.061199 0.0
1.374810 -0.050590 0.0
1.399760 -0.039046 0.0
1.420301 -0.026704 0.0
1.436330 -0.013476 0.0
1.447553 0.000678 0.0
1.453555 0.015783 0.0
1.453942 0.031573 0.0
1.448418 0.047564 0.0
1.436906 0.063076 0.0
1.419630 0.077342 0.0
1.397119 0.089612 0.0
1.370168 0.099232 0.0
1.339772 0.105678 0.0
1.307064 0.108569 0.0
1.273259 0.107674 0.0
1.239603 0.102921 0.0
1.207321 0.094416 0.0
1.177554 0.082462 0.0
1.151298 0.067572 0.0
1.129331 0.050442 0.0
1.112113 0.031927 0.0
1.099761 0.013129 0.0
1.092508 -0.004566 0.0
1.091109 -0.020147 0.0
1.096462 -0.032855 0.0
1.108989 -0.041880 0.0
1.128220 -0.046207 0.0
1.152617 -0.044785 0.0
1.179657 -0.036855 0.0
1.206057 -0.022470 0.0
1.228255 -0.003075 0.0
1.243618 0.019355 0.0
1.250842 0.042580 0.0
1.249449 0.064431 0.0
1.239714 0.082963 0.0
1.222524 0.096440 0.0
1.199104 0.103327 0.0
1.170587 0.102567 0.0
1.137755 0.094381 0.0
1.101476 0.080918 0.0
1.063601 0.065328 0.0
1.026757 0.049378 0.0
0.992384 0.033029 0.0
0.960194 0.017187 0.0
0.931176 0.003611 0.0
0.908507 -0.007260 0.0
0.894070 -0.015260 0.0
0.887126 -0.020416 0.0
0.886105 -0.023283 0.0
0.889633 -0.024267 0.0
0.896575 -0.023567 0.0
0.906033 -0.021272 0.0
0.917376 -0.017510 0.0
0.930103 -0.012768 0.0
0.943616 -0.007790 0.0
0.957396 -0.003241 0.0
0.971255 0.000348 0.0
0.985125 0.002662 0.0
0.998805 0.003761 0.0
1.011878 0.004133 0.0
1.023710 0.004565 0.0
1.033556 0.005886 0.0
1.040718 0.008636 0.0
1.044701 0.012824 0.0
1.045244 0.017971 0.0
1.042228 0.023211 0.0
1.035627 0.027440 0.0
1.025476 0.029791 0.0
1.011830 0.029868 0.0
0.994875 0.027873 0.0
0.975145 0.024474 0.0
0.953750 0.020433 0.0
0.932416 0.016253 0.0
0.913198 0.012064 0.0
0.897947 0.007790 0.0
0.887805 0.003386 0.0
0.883100 -0.000927 0.0
0.883184 -0.004653 0.0
0.886700 -0.007425 0.0
0.892410 -0.009184 0.0
0.899376 -0.009777 0.0
0.906766 -0.009086 0.0
0.913775 -0.007150 0.0
0.919641 -0.004177 0.0
0.923798 -0.000477 0.0
0.925959 0.003548 0.0
0.925283 0.007655 0.0
1.001434 -0.006192 0.0
1.007022 -0.019434 0.0
1.017980 -0.034067 0.0
1.034350 -0.050125 0.0
1.056451 -0.067278 0.0
1.084712 -0.084772 0.0
1.119381 -0.101298 0.0
1.160117 -0.114931 0.0
1.205613 -0.123509 0.0
1.253007 -0.124635 0.0
1.298672 -0.118632 0.0
1.340062 -0.107573 0.0
1.376149 -0.093622 0.0
1.406932 -0.078272 0.0
1.432835 -0.062217 0.0
1.454259 -0.045497 0.0
1.471305 -0.027760 0.0
1.483673 -0.008631 0.0
1.490827 0.011936 0.0
1.492195 0.033666 0.0
1.487341 0.055848 0.0
1.476181 0.077463 0.0
1.459037 0.097376 0.0
1.436590 0.114535 0.0
1.409777 0.128073 0.0
1.379662 0.137347 0.0
1.347348 0.141922 0.0
1.313913 0.141561 0.0
1.280383 0.136220 0.0
1.247716 0.126066 0.0
1.216797 0.111498 0.0
1.188430 0.093159 0.0
1.163334 0.071918 0.0
1.142169 0.048834 0.0
1.125661 0.025081 0.0
1.114763 0.001632 0.0
1.110647 -0.020830 0.0
1.114415 -0.041293 0.0
1.126667 -0.058221 0.0
1.147166 -0.069596 0.0
1.174744 -0.073370 0.0
1.207394 -0.067959 0.0
1.242356 -0.052729 0.0
1.276094 -0.028751 0.0
1.304764 0.000999 0.0
1.325825 0.032652 0.0
1.338593 0.062983 0.0
1.343231 0.089507 0.0
1.340184 0.110133 0.0
1.329967 0.123270 0.0
1.313015 0.128095 0.0
1.289740 0.124960 0.0
1.260908 0.115451 0.0
1.227922 0.101656 0.0
1.192551 0.085265 0.0
1.156439 0.067627 0.0
1.121119 0.050099 0.0
1.087674 0.033163 0.0
1.056274 0.017258 0.0
1.027522 0.003411 0.0
1.003264 -0.007886 0.0
0.984870 -0.016396 0.0
0.972208 -0.022020 0.0
0.964421 -0.024968 0.0
0.960590 -0.025498 0.0
0.959927 -0.023965 0.0
0.961885 -0.020998 0.0
0.966250 -0.017438 0.0
0.973123 -0.014247 0.0
0.982791 -0.012173 0.0
0.995599 -0.011494 0.0
1.011806 -0.011972 0.0
1.031434 -0.012834 0.0
1.054103 -0.012969 0.0
1.078936 -0.011260 0.0
1.104519 -0.006963 0.0
1.128964 -0.000005 0.0
1.150302 0.008918 0.0
1.167084 0.018498 0.0
1.178492 0.027345 0.0
1.183952 0.034576 0.0
1.183056 0.039624 0.0
1.175783 0.042345 0.0
1.162627 0.042887 0.0
1.144598 0.041443 0.0
1.123062 0.038113 0.0
1.099509 0.032975 0.0
1.075384 0.026254 0.0
1.052030 0.018417 0.0
1.030688 0.010089 0.0
1.012843 0.002091 0.0
1.000085 -0.004927 0.0
0.992951 -0.010257 0.0
0.990645 -0.013364 0.0
0.991837 -0.014081 0.0
0.995142 -0.012470 0.0
0.999238 -0.008820 0.0
1.002895 -0.003648 0.0
1.005017 0.002437 0.0
1.003862 0.010597 0.0
1.001231 -0.008857 0.0
1.006182 -0.027306 0.0
1.016252 -0.047223 0.0
1.031905 -0.068991 0.0
1.053951 -0.092560 0.0
1.083450 -0.117250 0.0
1.121408 -0.141447 0.0
1.168120 -0.162230 0.0
1.222609 -0.176196 0.0
1.279919 -0.176651 0.0
1.333057 -0.165420 0.0
1.378438 -0.147555 0.0
1.415783 -0.127071 0.0
1.446345 -0.106167 0.0
1.471678 -0.085557 0.0
1.492995 -0.064897 0.0
1.510802 -0.043213 0.0
1.524701 -0.019445 0.0
1.533536 0.006761 0.0
1.536056 0.034953 0.0
1.531379 0.064091 0.0
1.519179 0.092581 0.0
1.499841 0.118741 0.0
1.474318 0.141139 0.0
1.443880 0.158721 0.0
1.409888 0.170806 0.0
1.373651 0.177014 0.0
1.336358 0.177197 0.0
1.299062 0.171409 0.0
1.262706 0.159900 0.0
1.228157 0.143133 0.0
1.196246 0.121802 0.0
1.167796 0.096820 0.0
1.143639 0.069255 0.0
1.124617 0.040190 0.0
1.111587 0.010450 0.0
1.105419 -0.019364 0.0
1.106893 -0.048000 0.0
1.116489 -0.073362 0.0
1.134263 -0.092729 0.0
1.159964 -0.103515 0.0
1.193105 -0.103604 0.0
1.232570 -0.091511 0.0
1.275828 -0.066965 0.0
1.318284 -0.031914 0.0
1.353974 0.008815 0.0
1.379297 0.048730 0.0
1.394370 0.084049 0.0
1.400355 0.112655 0.0
1.398203 0.133116 0.0
1.388585 0.144819 0.0
1.372022 0.148074 0.0
1.349164 0.144026 0.0
1.320985 0.134246 0.0
1.288719 0.120313 0.0
1.253712 0.103699 0.0
1.217330 0.085728 0.0
1.180862 0.067446 0.0
1.145493 0.049745 0.0
1.112122 0.033048 0.0
1.081127 0.017729 0.0
1.052929 0.004580 0.0
1.028361 -0.005766 0.0
1.007844 -0.012917 0.0
0.990904 -0.016779 0.0
0.976674 -0.017790 0.0
0.964483 -0.016940 0.0
0.954224 -0.015602 0.0
0.946470 -0.015202 0.0
0.942355 -0.016771 0.0
0.943231 -0.020579 0.0
0.950303 -0.026167 0.0
0.964359 -0.032322 0.0
0.985607 -0.037399 0.0
1.013706 -0.039762 0.0
1.047823 -0.038161 0.0
1.086568 -0.031998 0.0
1.127696 -0.021555 0.0
1.167820 -0.007936 0.0
1.202927 0.007264 0.0
1.230038 0.022086 0.0
1.248140 0.034908 0.0
1.257321 0.045153 0.0
1.258066 0.052490 0.0
1.251232 0.056703 0.0
1.237956 0.057665 0.0
1.219540 0.055392 0.0
1.197381 0.050121 0.0
1.172950 0.042336 0.0
1.147754 0.032708 0.0
1.123123 0.021947 0.0
1.100040 0.011058 0.0
1.079511 0.001420 0.0
1.062602 -0.005826 0.0
1.049692 -0.009901 0.0
1.040218 -0.010480 0.0
1.033078 -0.007766 0.0
1.027076 -0.002358 0.0
1.021172 0.004929 0.0
1.014705 0.015727 0.0
1.001029 -0.011117 0.0
1.005234 -0.034203 0.0
1.014023 -0.059185 0.0
1.028227 -0.086886 0.0
1.049245 -0.117729 0.0
1.079061 -0.151396 0.0
1.120051 -0.186250 0.0
1.174037 -0.218125 0.0
1.242125 -0.242878 0.0
1.313996 -0.239150 0.0
1.374491 -0.216554 0.0
1.420061 -0.187372 0.0
1.453517 -0.158056 0.0
1.478809 -0.131036 0.0
1.499346 -0.106558 0.0
1.517608 -0.083475 0.0
1.534880 -0.059713 0.0
1.550866 -0.032830 0.0
1.563386 -0.001208 0.0
1.569487 0.034302 0.0
1.567050 0.071855 0.0
1.555257 0.108809 0.0
1.534528 0.142580 0.0
1.506157 0.171195 0.0
1.471842 0.193418 0.0
1.433332 0.208613 0.0
1.392225 0.216551 0.0
1.349915 0.217263 0.0
1.307601 0.210953 0.0
1.266342 0.197972 0.0
1.227120 0.178831 0.0
1.190904 0.154231 0.0
1.158661 0.125083 0.0
1.131293 0.092519 0.0
1.109413 0.057828 0.0
1.093033 0.022221 0.0
1.081569 -0.013503 0.0
1.074696 -0.048462 0.0
1.072856 -0.080655 0.0
1.077065 -0.107419 0.0
1.089051 -0.126511 0.0
1.111065 -0.135763 0.0
1.144853 -0.132606 0.0
1.190371 -0.114647 0.0
1.244759 -0.081076 0.0
1.301479 -0.034433 0.0
1.350449 0.017684 0.0
1.385183 0.065288 0.0
1.406210 0.104404 0.0
1.415711 0.134018 0.0
1.415361 0.153885 0.0
1.406445 0.164487 0.0
1.390046 0.166869 0.0
1.367227 0.162401 0.0
1.339108 0.152542 0.0
1.306866 0.138719 0.0
1.271715 0.122241 0.0
1.234870 0.104245 0.0
1.197506 0.085680 0.0
1.160687 0.067303 0.0
1.125315 0.049841 0.0
1.091996 0.033985 0.0
1.060810 0.020583 0.0
1.031374 0.010687 0.0
1.003078 0.004852 0.0
0.975303 0.002585 0.0
0.947918 0.002261 0.0
0.921818 0.001556 0.0
0.898958 -0.001747 0.0
0.881836 -0.008990 0.0
0.872833 -0.020232 0.0
0.873440 -0.034194 0.0
0.883854 -0.048764 0.0
0.903336 -0.061687 0.0
0.930782 -0.071019 0.0
0.965082 -0.075320 0.0
1.005186 -0.073687 0.0
1.049959 -0.065766 0.0
1.097919 -0.051807 0.0
1.146810 -0.032862 0.0
1.192932 -0.011021 0.0
1.231633 0.011213 0.0
1.260019 0.031280 0.0
1.277871 0.047765 0.0
1.285956 0.060177 0.0
1.285240 0.068183 0.0
1.276867 0.071664 0.0
1.262119 0.070756 0.0
1.242380 0.065871 0.0
1.219073 0.057676 0.0
1.193589 0.047094 0.0
1.167242 0.035341 0.0
1.141161 0.023747 0.0
1.116146 0.013772 0.0
1.092726 0.006832 0.0
1.071198 0.003790 0.0
1.051589 0.004712 0.0
1.033814 0.008941 0.0
1.017951 0.015397 0.0
1.005123 0.024553 0.0
1.000746 -0.012893 0.0
1.003843 -0.039729 0.0
1.010516 -0.069119 0.0
1.021851 -0.102492 0.0
1.039788 -0.141076 0.0
1.067435 -0.185512 0.0
1.109314 -0.235004 0.0
1.170500 -0.284542 0.0
1.259198 -0.333246 0.0
1.350185 -0.311641 0.0
1.410327 -0.264700 0.0
1.443770 -0.218240 0.0
1.461645 -0.178519 0.0
1.471847 -0.146067 0.0
1.479600 -0.119817 0.0
1.488635 -0.097513 0.0
1.501435 -0.075747 0.0
1.518734 -0.050082 0.0
1.538030 -0.015773 0.0
1.553071 0.027726 0.0
1.558295 0.075645 0.0
1.551796 0.123310 0.0
1.533993 0.166611 0.0
1.506665 0.202863 0.0
1.472012 0.230717 0.0
1.432125 0.249711 0.0
1.388814 0.259870 0.0
1.343614 0.261455 0.0
1.297842 0.254847 0.0
1.252680 0.240498 0.0
1.209255 0.218952 0.0
1.168687 0.190894 0.0
1.132091 0.157259 0.0
1.100388 0.119414 0.0
1.073795 0.079406 0.0
1.050992 0.039826 0.0
1.028836 0.002514 0.0
1.004524 -0.033294 0.0
0.979171 -0.068631 0.0
0.957594 -0.102076 0.0
0.945956 -0.132203 0.0
0.949891 -0.156019 0.0
0.972487 -0.168733 0.0
1.013859 -0.165410 0.0
1.071810 -0.142652 0.0
1.142149 -0.099916 0.0
1.217519 -0.041173 0.0
1.284773 0.022158 0.0
1.334224 0.077054 0.0
1.366305 0.119785 0.0
1.383985 0.150789 0.0
1.389529 0.170955 0.0
1.384791 0.181539 0.0
1.371359 0.183982 0.0
1.350672 0.179767 0.0
1.324082 0.170326 0.0
1.292887 0.156981 0.0
1.258332 0.140906 0.0
1.221595 0.123121 0.0
1.183738 0.104539 0.0
1.145598 0.086116 0.0
1.107599 0.069027 0.0
1.069571 0.054756 0.0
1.030810 0.044710 0.0
0.990585 0.039350 0.0
0.949032 0.037415 0.0
0.907908 0.035941 0.0
0.870489 0.031396 0.0
0.840522 0.021240 0.0
0.820839 0.004829 0.0
0.812565 -0.016773 0.0
0.815292 -0.040987 0.0
0.827645 -0.064737 0.0
0.847940 -0.085492 0.0
0.874741 -0.101462 0.0
0.907019 -0.111455 0.0
0.944070 -0.114707 0.0
0.985330 -0.110780 0.0
1.030151 -0.099574 0.0
1.077572 -0.081407 0.0
1.126117 -0.057143 0.0
1.173406 -0.028655 0.0
1.215408 0.000761 0.0
1.248163 0.027678 0.0
1.270399 0.049943 0.0
1.282611 0.066921 0.0
1.285612 0.078298 0.0
1.280421 0.084059 0.0
1.268213 0.084515 0.0
1.250248 0.080305 0.0
1.227801 0.072396 0.0
1.202108 0.062080 0.0
1.174294 0.050904 0.0
1.145351 0.040573 0.0
1.116149 0.032652 0.0
1.087468 0.028176 0.0
1.060071 0.027331 0.0
1.034803 0.029365 0.0
1.012716 0.032924 0.0
0.995923 0.036645 0.0
1.000344 -0.013983 0.0
1.001813 -0.043206 0.0
1.005192 -0.075694 0.0
1.011560 -0.113620 0.0
1.023052 -0.159379 0.0
1.043653 -0.215458 0.0
1.080476 -0.283760 0.0
1.144551 -0.361046 0.0
1.262152 -0.463042 0.0
1.369990 -0.380669 0.0
1.403545 -0.289369 0.0
1.400074 -0.223543 0.0
1.384956 -0.175973 0.0
1.367483 -0.141342 0.0
1.352207 -0.117019 0.0
1.342891 -0.100030 0.0
1.343118 -0.086257 0.0
1.356144 -0.069897 0.0
1.383043 -0.042152 0.0
1.416124 0.005983 0.0
1.441331 0.066957 0.0
1.451466 0.128362 0.0
1.447224 0.183605 0.0
1.431099 0.229322 0.0
1.405705 0.264305 0.0
1.373249 0.288466 0.0
1.335512 0.302162 0.0
1.293984 0.305891 0.0
1.249992 0.300175 0.0
1.204789 0.285535 0.0
1.159594 0.262536 0.0
1.115594 0.231877 0.0
1.073841 0.194625 0.0
1.034899 0.152693 0.0
0.998054 0.109565 0.0
0.960431 0.070093 0.0
0.917657 0.037177 0.0
0.866987 0.007025 0.0
0.812384 -0.028994 0.0
0.767113 -0.074866 0.0
0.744088 -0.124750 0.0
0.746457 -0.169777 0.0
0.771096 -0.202210 0.0
0.814059 -0.216268 0.0
0.872464 -0.208150 0.0
0.944030 -0.176323 0.0
1.026012 -0.122119 0.0
1.113190 -0.051327 0.0
1.192712 0.021567 0.0
1.253391 0.082512 0.0
1.295091 0.128682 0.0
1.320893 0.161715 0.0
1.333151 0.183259 0.0
1.333860 0.194985 0.0
1.324788 0.198523 0.0
1.307545 0.195403 0.0
1.283613 0.187030 0.0
1.254360 0.174665 0.0
1.221010 0.159448 0.0
1.184575 0.142504 0.0
1.145703 0.125163 0.0
1.104516 0.109166 0.0
1.060634 0.096527 0.0
1.013652 0.088682 0.0
0.964055 0.085201 0.0
0.914038 0.083133 0.0
0.867467 0.077918 0.0
0.828740 0.065565 0.0
0.801234 0.044543 0.0
0.786341 0.016101 0.0
0.783415 -0.016845 0.0
0.790429 -0.050656 0.0
0.805079 -0.082071 0.0
0.825524 -0.108899 0.0
0.850507 -0.129838 0.0
0.879266 -0.144117 0.0
0.911410 -0.151239 0.0
0.946750 -0.150847 0.0
0.985126 -0.142705 0.0
1.026221 -0.126793 0.0
1.069397 -0.103477 0.0
1.113539 -0.073752 0.0
1.156880 -0.039486 0.0
1.196256 -0.004207 0.0
1.227916 0.027931 0.0
1.250103 0.054534 0.0
1.262895 0.074894 0.0
1.266810 0.088739 0.0
1.262649 0.096205 0.0
1.251391 0.097839 0.0
1.234106 0.094591 0.0
1.211893 0.087791 0.0
1.185831 0.079068 0.0
1.156983 0.070200 0.0
1.126424 0.062787 0.0
1.095295 0.057852 0.0
1.064858 0.055489 0.0
1.036558 0.054775 0.0
1.012042 0.054118 0.0
0.993754 0.050532 0.0
0.999820 -0.014146 0.0
0.999138 -0.043829 0.0
0.997986 -0.077298 0.0
0.996989 -0.117386 0.0
0.997660 -0.167776 0.0
1.003548 -0.233549 0.0
1.022908 -0.321853 0.0
1.074119 -0.438238 0.0
1.217826 -0.647157 0.0
1.314851 -0.401416 0.0
1.266000 -0.253326 0.0
1.193837 -0.183952 0.0
1.132843 -0.139452 0.0
1.081011 -0.108557 0.0
1.036867 -0.090383 0.0
1.002627 -0.083111 0.0
0.982743 -0.083520 0.0
0.983813 -0.086731 0.0
1.012627 -0.081030 0.0
1.070468 -0.046061 0.0
1.137612 0.026650 0.0
1.188610 0.107536 0.0
1.218830 0.178453 0.0
1.232917 0.236512 0.0
1.234046 0.281382 0.0
1.224289 0.313601 0.0
1.205199 0.333855 0.0
1.178151 0.342775 0.0
1.144494 0.340939 0.0
1.105551 0.328917 0.0
1.062512 0.307389 0.0
1.016052 0.277485 0.0
0.965329 0.241494 0.0
0.906655 0.203441 0.0
0.834553 0.167763 0.0
0.748458 0.135614 0.0
0.660146 0.102741 0.0
0.590202 0.062075 0.0
0.553265 0.007497 0.0
0.547820 -0.060642 0.0
0.562992 -0.131120 0.0
0.590215 -0.192999 0.0
0.625994 -0.239406 0.0
0.670017 -0.266059 0.0
0.723207 -0.269955 0.0
0.786458 -0.249334 0.0
0.859802 -0.204434 0.0
0.941921 -0.138310 0.0
1.029023 -0.058074 0.0
1.109667 0.020829 0.0
1.173046 0.085287 0.0
1.218432 0.133922 0.0
1.248271 0.168957 0.0
1.264524 0.192324 0.0
1.268964 0.205816 0.0
1.263228 0.211088 0.0
1.248847 0.209658 0.0
1.227217 0.202920 0.0
1.199550 0.192209 0.0
1.166762 0.178966 0.0
1.129347 0.164989 0.0
1.087366 0.152508 0.0
1.040789 0.143643 0.0
0.990268 0.139069 0.0
0.937967 0.136712 0.0
0.887745 0.131861 0.0
0.844232 0.119274 0.0
0.811241 0.095927 0.0
0.790589 0.062340 0.0
0.781997 0.021788 0.0
0.783758 -0.021366 0.0
0.793526 -0.062917 0.0
0.809067 -0.100001 0.0
0.828670 -0.131018 0.0
0.851171 -0.155203 0.0
0.875896 -0.172236 0.0
0.902584 -0.181951 0.0
0.931276 -0.184167 0.0
0.962154 -0.178639 0.0
0.995353 -0.165153 0.0
1.030782 -0.143721 0.0
1.067975 -0.114843 0.0
1.105993 -0.079755 0.0
1.143317 -0.040638 0.0
1.177247 -0.001228 0.0
1.204644 0.034109 0.0
1.223898 0.063273 0.0
1.234794 0.085548 0.0
1.237594 0.100757 0.0
1.232881 0.109258 0.0
1.221432 0.111905 0.0
1.204137 0.109985 0.0
1.181963 0.105110 0.0
1.155958 0.099012 0.0
1.127287 0.093204 0.0
1.097289 0.088563 0.0
1.067505 0.084999 0.0
1.039675 0.081395 0.0
1.015672 0.076017 0.0
0.997838 0.064756 0.0
0.999230 -0.013196 0.0
0.996096 -0.040963 0.0
0.989633 -0.072550 0.0
0.979509 -0.111013 0.0
0.965434 -0.160744 0.0
0.947804 -0.228839 0.0
0.929973 -0.328092 0.0
0.926749 -0.479987 0.0
1.020634 -0.843002 0.0
1.014674 -0.195727 0.0
0.823335 -0.107219 0.0
0.676087 -0.099953 0.0
0.589614 -0.075983 0.0
0.522316 -0.052896 0.0
0.465980 -0.045565 0.0
0.430677 -0.058387 0.0
0.425690 -0.083372 0.0
0.452395 -0.114653 0.0
0.508835 -0.138363 0.0
0.591740 -0.129475 0.0
0.697290 -0.062630 0.0
0.801166 0.041941 0.0
0.879643 0.135351 0.0
0.935412 0.209757 0.0
0.973912 0.268509 0.0
0.996889 0.313253 0.0
1.005346 0.344837 0.0
1.000358 0.363830 0.0
0.983102 0.370797 0.0
0.954606 0.366498 0.0
0.915190 0.352263 0.0
0.863608 0.330653 0.0
0.796901 0.305756 0.0
0.713507 0.281247 0.0
0.619738 0.255828 0.0
0.532189 0.221194 0.0
0.469516 0.168145 0.0
0.440977 0.095154 0.0
0.443303 0.009030 0.0
0.465096 -0.078522 0.0
0.495056 -0.158372 0.0
0.527491 -0.225404 0.0
0.561219 -0.276508 0.0
0.597483 -0.309244 0.0
0.638720 -0.321197 0.0
0.687550 -0.310172 0.0
0.745777 -0.275167 0.0
0.813677 -0.217595 0.0
0.889767 -0.141980 0.0
0.970246 -0.056390 0.0
1.044945 0.024429 0.0
1.104650 0.089688 0.0
1.148572 0.139430 0.0
1.178313 0.175857 0.0
1.195306 0.200851 0.0
1.200957 0.216137 0.0
1.196629 0.223319 0.0
1.183585 0.223933 0.0
1.162902 0.219547 0.0
1.135360 0.211960 0.0
1.101393 0.203377 0.0
1.061292 0.196201 0.0
1.015777 0.192042 0.0
0.966765 0.190203 0.0
0.917767 0.186876 0.0
0.873330 0.176355 0.0
0.837630 0.153992 0.0
0.813121 0.118708 0.0
0.800139 0.073193 0.0
0.797479 0.022188 0.0
0.803177 -0.029225 0.0
0.815071 -0.076721 0.0
0.831184 -0.117850 0.0
0.849917 -0.151505 0.0
0.870105 -0.177404 0.0
0.891035 -0.195690 0.0
0.912458 -0.206608 0.0
0.934534 -0.210277 0.0
0.957704 -0.206577 0.0
0.982492 -0.195203 0.0
1.009280 -0.175887 0.0
1.038119 -0.148709 0.0
1.068618 -0.114405 0.0
1.099887 -0.074580 0.0
1.130492 -0.031820 0.0
1.157974 0.009822 0.0
1.179836 0.046445 0.0
1.194857 0.076460 0.0
1.202683 0.099220 0.0
1.203416 0.114775 0.0
1.197469 0.123784 0.0
1.185465 0.127405 0.0
1.168190 0.127139 0.0
1.146600 0.124579 0.0
1.121854 0.121053 0.0
1.095348 0.117218 0.0
1.068707 0.112769 0.0
1.043721 0.106441 0.0
1.022208 0.096487 0.0
1.006191 0.078138 0.0
0.998681 -0.011107 0.0
0.993254 -0.034492 0.0
0.981753 -0.061058 0.0
0.962701 -0.093329 0.0
0.933342 -0.134993 0.0
0.888598 -0.192216 0.0
0.818496 -0.276782 0.0
0.703470 -0.413048 0.0
0.315751 -0.717017 0.0
-0.459772 0.252346 0.0
-0.459772 0.000000 0.0
-0.034999 -0.024614 0.0
-0.066389 -0.043844 0.0
-0.046019 -0.038107 0.0
-0.000693 -0.049345 0.0
0.052190 -0.072186 0.0
0.094286 -0.106683 0.0
0.130681 -0.154442 0.0
0.175171 -0.199505 0.0
0.237832 -0.213899 0.0
0.323875 -0.169797 0.0
0.431802 -0.062696 0.0
0.537497 0.055815 0.0
0.622457 0.148564 0.0
0.690152 0.223508 0.0
0.740936 0.284491 0.0
0.774092 0.331985 0.0
0.789570 0.366192 0.0
0.787585 0.387675 0.0
0.768026 0.397676 0.0
0.730034 0.398493 0.0
0.672689 0.393349 0.0
0.598171 0.384285 0.0
0.516213 0.368069 0.0
0.444000 0.334988 0.0
0.397905 0.275678 0.0
0.384140 0.190098 0.0
0.397827 0.088053 0.0
0.428279 -0.016646 0.0
0.464679 -0.111039 0.0
0.500334 -0.191471 0.0
0.532622 -0.257027 0.0
0.561154 -0.307146 0.0
0.587371 -0.341086 0.0
0.614224 -0.357445 0.0
0.645542 -0.354073 0.0
0.684919 -0.328870 0.0
0.734456 -0.281329 0.0
0.794036 -0.213916 0.0
0.861415 -0.132312 0.0
0.932160 -0.045093 0.0
0.997288 0.034377 0.0
1.049731 0.098375 0.0
1.088911 0.147992 0.0
1.115624 0.185010 0.0
1.130833 0.211117 0.0
1.135561 0.227940 0.0
1.130792 0.237125 0.0
1.117366 0.240462 0.0
1.095906 0.240046 0.0
1.066899 0.238265 0.0
1.031071 0.237242 0.0
0.990022 0.237565 0.0
0.946729 0.236984 0.0
0.905368 0.230454 0.0
0.870240 0.212343 0.0
0.844397 0.179548 0.0
0.828930 0.133128 0.0
0.823275 0.077408 0.0
0.826016 0.017893 0.0
0.835339 -0.039951 0.0
0.849298 -0.091849 0.0
0.866103 -0.135639 0.0
0.884223 -0.170569 0.0
0.902464 -0.196768 0.0
0.920046 -0.214838 0.0
0.936668 -0.225504 0.0
0.952518 -0.229306 0.0
0.968197 -0.226398 0.0
0.984549 -0.216522 0.0
1.002396 -0.199204 0.0
1.022292 -0.174127 0.0
1.044335 -0.141529 0.0
1.068111 -0.102501 0.0
1.092700 -0.059093 0.0
1.116625 -0.014312 0.0
1.137713 0.027630 0.0
1.154065 0.063900 0.0
1.164760 0.093259 0.0
1.169424 0.115338 0.0
1.168083 0.130508 0.0
1.161055 0.139713 0.0
1.148901 0.144259 0.0
1.132427 0.145522 0.0
1.112703 0.144580 0.0
1.091067 0.141835 0.0
1.069072 0.136788 0.0
1.048377 0.128103 0.0
1.030576 0.114138 0.0
1.017276 0.089804 0.0
0.998295 -0.008083 0.0
0.991268 -0.025062 0.0
0.976289 -0.044008 0.0
0.951200 -0.066238 0.0
0.911857 -0.093383 0.0
0.850277 -0.127502 0.0
0.749825 -0.170942 0.0
0.571318 -0.225355 0.0
0.227796 -0.271228 0.0
0.000000 0.252346 0.0
-0.000000 -0.000000 0.0
0.000000 0.000000 0.0
-0.025075 -0.023726 0.0
-0.054822 -0.050195 0.0
-0.058182 -0.079224 0.0
-0.061629 -0.091742 0.0
-0.074885 -0.115968 0.0
-0.087615 -0.168820 0.0
-0.085571 -0.231660 0.0
-0.058185 -0.271792 0.0
0.003732 -0.259864 0.0
0.102243 -0.179066 0.0
0.222591 -0.053858 0.0
0.334247 0.061621 0.0
0.422767 0.154236 0.0
0.492344 0.233401 0.0
0.542482 0.299781 0.0
0.572244 0.353157 0.0
0.580861 0.394078 0.0
0.567759 0.423933 0.0
0.533503 0.444484 0.0
0.482202 0.456004 0.0
0.424226 0.454125 0.0
0.375367 0.429046 0.0
0.350093 0.371498 0.0
0.353848 0.281508 0.0
0.382113 0.169769 0.0
0.425601 0.051207 0.0
0.473489 -0.058140 0.0
0.518102 -0.150559 0.0
0.556702 -0.226207 0.0
0.588013 -0.285889 0.0
0.611763 -0.330566 0.0
0.628948 -0.361067 0.0
0.642129 -0.377497 0.0
0.655434 -0.378644 0.0
0.673842 -0.362084 0.0
0.701677 -0.325487 0.0
0.741005 -0.268667 0.0
0.790993 -0.194928 0.0
0.848481 -0.110710 0.0
0.908220 -0.024872 0.0
0.962446 0.050956 0.0
1.006144 0.112533 0.0
1.038883 0.161017 0.0
1.060935 0.197850 0.0
1.072834 0.224581 0.0
1.075181 0.242906 0.0
1.068525 0.254763 0.0
1.053362 0.262369 0.0
1.030344 0.267968 0.0
1.000738 0.272974 0.0
0.966921 0.276699 0.0
0.932477 0.275586 0.0
0.901518 0.264172 0.0
0.877465 0.237806 0.0
0.862100 0.195292 0.0
0.855532 0.139420 0.0
0.856856 0.075447 0.0
0.864781 0.009188 0.0
0.877682 -0.053470 0.0
0.893730 -0.108336 0.0
0.911236 -0.153464 0.0
0.928751 -0.188380 0.0
0.945118 -0.213565 0.0
0.959548 -0.230054 0.0
0.971697 -0.239061 0.0
0.981726 -0.241629 0.0
0.990298 -0.238327 0.0
0.998459 -0.229105 0.0
1.007403 -0.213413 0.0
1.018162 -0.190574 0.0
1.031340 -0.160304 0.0
1.046977 -0.123139 0.0
1.064558 -0.080625 0.0
1.083094 -0.035242 0.0
1.101002 0.009564 0.0
1.116449 0.050167 0.0
1.128085 0.084662 0.0
1.135152 0.112205 0.0
1.137317 0.132816 0.0
1.134599 0.147152 0.0
1.127318 0.156256 0.0
1.116093 0.161225 0.0
1.101842 0.162851 0.0
1.085755 0.161287 0.0
1.069201 0.155884 0.0
1.053589 0.145315 0.0
1.040196 0.128120 0.0
1.030185 0.099133 0.0
0.998152 -0.004530 0.0
0.990548 -0.013983 0.0
0.974424 -0.023984 0.0
0.947726 -0.034476 0.0
0.906831 -0.044907 0.0
0.845778 -0.053345 0.0
0.755547 -0.054416 0.0
0.625477 -0.033304 0.0
0.458765 0.050104 0.0
0.184190 0.166389 0.0
0.000000 0.000000 0.0
-0.000000 -0.000000 0.0
0.000000 0.000000 0.0
-0.024326 -0.022761 0.0
-0.069679 -0.059510 0.0
-0.124060 -0.053627 0.0
-0.187397 -0.077490 0.0
-0.234474 -0.147491 0.0
-0.253551 -0.235956 0.0
-0.245096 -0.303336 0.0
-0.211331 -0.324003 0.0
-0.143674 -0.281094 0.0
-0.033881 -0.181970 0.0
0.090574 -0.046378 0.0
0.193733 0.070555 0.0
0.272718 0.168521 0.0
0.332383 0.254858 0.0
0.371511 0.329191 0.0
0.389356 0.391582 0.0
0.386766 0.442121 0.0
0.367859 0.479458 0.0
0.341640 0.498550 0.0
0.321248 0.489948 0.0
0.319119 0.444211 0.0
0.340865 0.359861 0.0
0.383749 0.246507 0.0
0.440493 0.119759 0.0
0.501737 -0.003515 0.0
0.558619 -0.108188 0.0
0.607149 -0.193653 0.0
0.646585 -0.261149 0.0
0.676388 -0.312061 0.0
0.696370 -0.348127 0.0
0.706974 -0.371294 0.0
0.709732 -0.383208 0.0
0.707847 -0.384352 0.0
0.706340 -0.373279 0.0
0.711133 -0.346919 0.0
0.727051 -0.302480 0.0
0.755905 -0.239958 0.0
0.796039 -0.163302 0.0
0.843430 -0.079411 0.0
0.892043 0.002656 0.0
0.935509 0.073668 0.0
0.970567 0.132085 0.0
0.996565 0.178733 0.0
1.013442 0.214922 0.0
1.021368 0.242292 0.0
1.020620 0.262781 0.0
1.011651 0.278483 0.0
0.995376 0.291145 0.0
0.973582 0.301197 0.0
0.949145 0.306730 0.0
0.925709 0.303436 0.0
0.906746 0.286245 0.0
0.894530 0.252003 0.0
0.889754 0.201236 0.0
0.891963 0.137835 0.0
0.900242 0.067430 0.0
0.913477 -0.003955 0.0
0.930010 -0.069762 0.0
0.947964 -0.126046 0.0
0.965799 -0.171095 0.0
0.982235 -0.204700 0.0