# vtk DataFile Version 3.0
Scalar Field
ASCII
DATASET RECTILINEAR_GRID
DIMENSIONS 100 26 1
X_COORDINATES 100 double
0.050000 0.150000 0.250000 0.350000 0.450000 0.550000 0.650000 0.750000 0.850000 0.950000 1.050000 1.150000 1.250000 1.350000 1.450000 1.550000 1.650000 1.750000 1.850000 1.950000 2.050000 2.150000 2.250000 2.350000 2.450000 2.550000 2.650000 2.750000 2.850000 2.950000 3.050000 3.150000 3.250000 3.350000 3.450000 3.550000 3.650000 3.750000 3.850000 3.950000 4.050000 4.150000 4.250000 4.350000 4.450000 4.550000 4.650000 4.750000 4.850000 4.950000 5.050000 5.150000 5.250000 5.350000 5.450000 5.550000 5.650000 5.750000 5.850000 5.950000 6.050000 6.150000 6.250000 6.350000 6.450000 6.550000 6.650000 6.750000 6.850000 6.950000 7.050000 7.150000 7.250000 7.350000 7.450000 7.550000 7.650000 7.750000 7.850000 7.950000 8.050000 8.150000 8.250000 8.350000 8.450000 8.550000 8.650000 8.750000 8.850000 8.950000 9.050000 9.150000 9.250000 9.350000 9.450000 9.550000 9.650000 9.750000 9.850000 9.950000 
Y_COORDINATES 26 double
0.050000 0.150000 0.250000 0.350000 0.450000 0.550000 0.650000 0.750000 0.850000 0.950000 1.050000 1.150000 1.250000 1.350000 1.450000 1.550000 1.650000 1.750000 1.850000 1.950000 2.050000 2.150000 2.250000 2.350000 2.450000 2.550000 
Z_COORDINATES 1 double
0.0
POINT_DATA 2600
SCALARS Skalarfeld double 1
LOOKUP_TABLE default
0.267165
0.251851
0.236571
0.218307
0.195976
0.169160
0.137891
0.102644
0.064394
0.024621
-0.014818
-0.051984
-0.085198
-0.113273
-0.135554
-0.151493
-0.161441
-0.165997
-0.165963
-0.162245
-0.155782
-0.147480
-0.138167
-0.128543
-0.119144
-0.110302
-0.102125
-0.094527
-0.087315
-0.080309
-0.073457
-0.066888
-0.060896
-0.055866
-0.052166
-0.050028
-0.049445
-0.050107
-0.051397
-0.052427
-0.052080
-0.049098
-0.042708
-0.031801
-0.018393
-0.004719
0.008136
0.019749
0.029993
0.038827
0.046209
0.052096
0.056479
0.059222
0.060581
0.060158
0.057513
0.052284
0.044393
0.034321
0.023263
0.012805
0.004135
-0.002546
-0.007742
-0.011897
-0.014978
-0.016707
-0.016893
-0.015498
-0.012982
-0.009836
-0.006399
-0.003003
0.000050
0.002425
0.004057
0.004775
0.004637
0.003878
0.002855
0.002015
0.001827
0.002676
0.004676
0.007871
0.011652
0.015757
0.020056
0.024467
0.028922
0.033349
0.037682
0.041917
0.046118
0.050320
0.054431
0.058235
0.061448
0.063968
0.258377
0.251865
0.239552
0.222438
0.200400
0.173281
0.141146
0.104476
0.064335
0.022424
-0.019054
-0.057850
-0.092096
-0.120502
-0.142375
-0.157870
-0.167154
-0.170841
-0.169813
-0.165051
-0.157570
-0.148349
-0.138290
-0.128165
-0.118565
-0.109841
-0.102064
-0.095047
-0.088461
-0.082008
-0.075561
-0.069220
-0.063291
-0.058191
-0.054329
-0.051977
-0.051160
-0.051593
-0.052678
-0.053534
-0.052962
-0.049368
-0.041149
-0.030072
-0.017375
-0.004389
0.007932
0.019167
0.029170
0.037882
0.045252
0.051238
0.055875
0.059386
0.061196
0.060881
0.058310
0.052998
0.044828
0.034347
0.022952
0.012410
0.003870
-0.002706
-0.008039
-0.012557
-0.015992
-0.017778
-0.017821
-0.016229
-0.013536
-0.010285
-0.006707
-0.003164
0.000057
0.002764
0.004558
0.005210
0.004945
0.004010
0.002776
0.001731
0.001413
0.002318
0.004620
0.007725
0.011423
0.015545
0.019919
0.024420
0.028938
0.033377
0.037682
0.041893
0.046111
0.050377
0.054604
0.058546
0.061850
0.064359
0.261603
0.257439
0.246984
0.230833
0.208950
0.181114
0.147247
0.107736
0.063747
0.017411
-0.028260
-0.070319
-0.106587
-0.135810
-0.157529
-0.171926
-0.179598
-0.181235
-0.177898
-0.170740
-0.160950
-0.149697
-0.138074
-0.127044
-0.117348
-0.109388
-0.103106
-0.098009
-0.093373
-0.088571
-0.083270
-0.077490
-0.071542
-0.065905
-0.061064
-0.057373
-0.054938
-0.053554
-0.052689
-0.051497
-0.048872
-0.043694
-0.035393
-0.024525
-0.012997
-0.001505
0.009480
0.019604
0.028713
0.036725
0.043562
0.049162
0.053513
0.056641
0.058452
0.058497
0.055898
0.050789
0.043205
0.033675
0.023333
0.013496
0.004983
-0.002151
-0.008221
-0.013271
-0.016869
-0.018498
-0.018037
-0.016323
-0.013876
-0.010824
-0.007197
-0.003626
-0.000380
0.002256
0.004023
0.004865
0.004719
0.003854
0.002710
0.001789
0.001581
0.002437
0.004426
0.007337
0.010978
0.015123
0.019613
0.024281
0.028972
0.033567
0.038013
0.042356
0.046692
0.051050
0.055409
0.059531
0.062916
0.063199
0.272530
0.269121
0.259664
0.244155
0.222205
0.193218
0.156688
0.112667
0.062359
0.008553
-0.043983
-0.091021
-0.130047
-0.160059
-0.181035
-0.193541
-0.198497
-0.196874
-0.189950
-0.179094
-0.165731
-0.151286
-0.137126
-0.124521
-0.114522
-0.107660
-0.103755
-0.101801
-0.100327
-0.098144
-0.094608
-0.089641
-0.083596
-0.077058
-0.070635
-0.064795
-0.059760
-0.055457
-0.051515
-0.047316
-0.042126
-0.035341
-0.026802
-0.016945
-0.006579
0.003564
0.013080
0.021835
0.029713
0.036614
0.042437
0.047101
0.050587
0.052900
0.053959
0.053520
0.051330
0.046784
0.039855
0.031324
0.022053
0.013034
0.004893
-0.002149
-0.008081
-0.012786
-0.015979
-0.017464
-0.017335
-0.015935
-0.013438
-0.010129
-0.006760
-0.003527
-0.000472
0.001983
0.003594
0.004279
0.004077
0.003250
0.002192
0.001361
0.001179
0.001938
0.003726
0.006464
0.010018
0.014206
0.018830
0.023679
0.028561
0.033335
0.037949
0.042455
0.046974
0.051641
0.056405
0.061170
0.065753
0.069080
0.289729
0.286703
0.277989
0.263116
0.241166
0.210844
0.170777
0.120172
0.059965
-0.006260
-0.069521
-0.123386
-0.165418
-0.195539
-0.214612
-0.223856
-0.224592
-0.218184
-0.206118
-0.189999
-0.171537
-0.152473
-0.134510
-0.119374
-0.108832
-0.103706
-0.103435
-0.106222
-0.109477
-0.110923
-0.109574
-0.105354
-0.098832
-0.090856
-0.082264
-0.073702
-0.065543
-0.057873
-0.050524
-0.043160
-0.035398
-0.026986
-0.017936
-0.008540
0.000766
0.009604
0.017792
0.025268
0.031877
0.037528
0.042124
0.045578
0.047924
0.049238
0.049485
0.048461
0.045864
0.041400
0.035107
0.027298
0.018592
0.010221
0.002628
-0.003838
-0.009049
-0.012911
-0.015319
-0.016251
-0.015826
-0.014272
-0.011840
-0.008845
-0.005642
-0.002383
0.000397
0.002558
0.003870
0.004268
0.003782
0.002676
0.001348
0.000237
-0.000255
0.000222
0.001755
0.004282
0.007736
0.011951
0.016703
0.021745
0.026848
0.031843
0.036658
0.041341
0.046047
0.051010
0.056485
0.062704
0.069795
0.081362
0.312477
0.309842
0.302081
0.288333
0.267026
0.235807
0.191714
0.132015
0.056364
-0.031496
-0.111067
-0.172928
-0.216772
-0.245052
-0.260148
-0.264100
-0.258726
-0.245719
-0.226644
-0.203361
-0.177933
-0.152490
-0.129087
-0.109975
-0.098334
-0.095783
-0.101443
-0.111841
-0.122063
-0.128387
-0.129513
-0.125612
-0.117827
-0.107560
-0.096052
-0.084208
-0.072573
-0.061383
-0.050647
-0.040245
-0.030039
-0.019977
-0.010145
-0.000744
0.007991
0.015879
0.022815
0.028805
0.034137
0.038448
0.041743
0.043880
0.044993
0.045322
0.044907
0.043531
0.040814
0.036386
0.030116
0.022220
0.013725
0.005684
-0.001625
-0.007526
-0.011905
-0.014754
-0.016124
-0.016130
-0.014965
-0.012873
-0.010125
-0.007000
-0.003778
-0.000710
0.001893
0.003800
0.004835
0.004837
0.003879
0.002199
0.000208
-0.001613
-0.002826
-0.003117
-0.002140
-0.000001
0.003272
0.007489
0.012378
0.017644
0.023013
0.028286
0.033370
0.038307
0.043285
0.048637
0.054839
0.062513
0.072482
0.093488
0.340037
0.337979
0.331768
0.320227
0.301102
0.270636
0.223206
0.151833
0.051518
-0.077158
-0.179616
-0.246802
-0.287691
-0.310198
-0.318309
-0.314532
-0.301352
-0.279911
-0.251815
-0.219260
-0.184789
-0.151061
-0.120630
-0.095520
-0.081280
-0.081605
-0.095386
-0.117138
-0.138485
-0.151345
-0.155111
-0.150783
-0.140674
-0.127125
-0.111949
-0.096352
-0.081031
-0.066328
-0.052359
-0.039134
-0.026649
-0.014951
-0.004151
0.005598
0.014159
0.021433
0.027350
0.031843
0.034857
0.036999
0.038801
0.039449
0.039153
0.038545
0.037818
0.036677
0.034560
0.030896
0.025353
0.018008
0.009499
0.000581
-0.006719
-0.012422
-0.016270
-0.018309
-0.018706
-0.017706
-0.015601
-0.012707
-0.009333
-0.005772
-0.002292
0.000861
0.003434
0.005179
0.005872
0.005364
0.003692
0.001115
-0.001917
-0.004857
-0.007170
-0.008435
-0.008394
-0.006755
-0.003670
0.000589
0.005671
0.011217
0.016908
0.022511
0.027909
0.033136
0.038395
0.044083
0.050826
0.059530
0.071484
0.098194
0.371333
0.370137
0.366364
0.358711
0.344470
0.318481
0.271361
0.187554
0.045853
-0.166481
-0.291596
-0.348535
-0.375344
-0.386858
-0.385256
-0.373254
-0.351659
-0.320599
-0.281924
-0.238364
-0.193125
-0.149588
-0.111015
-0.079940
-0.059742
-0.061202
-0.082564
-0.116315
-0.151751
-0.176197
-0.182910
-0.177622
-0.164571
-0.147350
-0.128397
-0.109164
-0.090431
-0.072579
-0.055774
-0.040090
-0.025595
-0.012382
-0.000575
0.009691
0.018290
0.025087
0.029919
0.032659
0.033334
0.032259
0.029849
0.028214
0.026652
0.025844
0.025760
0.025834
0.025283
0.023352
0.019507
0.013599
0.005975
-0.002587
-0.010892
-0.017087
-0.020898
-0.022616
-0.022441
-0.020699
-0.017781
-0.014092
-0.010015
-0.005893
-0.002019
0.001344
0.003940
0.005509
0.005805
0.004667
0.002116
-0.001576
-0.005900
-0.010193
-0.013779
-0.016110
-0.016883
-0.015677
-0.012690
-0.008303
-0.002954
0.002925
0.008967
0.014902
0.020593
0.026057
0.031494
0.037320
0.044218
0.053203
0.065720
0.093040
0.404759
0.404728
0.404362
0.402599
0.396977
0.381972
0.345014
0.257207
0.046042
-0.355371
-0.459758
-0.461423
-0.459243
-0.458729
-0.449934
-0.433840
-0.405487
-0.365630
-0.316805
-0.262500
-0.206750
-0.153787
-0.107864
-0.073200
-0.048283
-0.047882
-0.071463
-0.109527
-0.151425
-0.186431
-0.202018
-0.196978
-0.182172
-0.162646
-0.141357
-0.119877
-0.098991
-0.079085
-0.060363
-0.042965
-0.027026
-0.012697
-0.000139
0.010470
0.018900
0.024786
0.027668
0.027315
0.024134
0.019199
0.013851
0.009299
0.007332
0.007526
0.009169
0.011373
0.013185
0.013730
0.012337
0.008673
0.002846
-0.004547
-0.012462
-0.019633
-0.024330
-0.026281
-0.026118
-0.024153
-0.020832
-0.016642
-0.012053
-0.007481
-0.003281
0.000242
0.002805
0.004123
0.003934
0.002061
-0.001475
-0.006373
-0.012035
-0.017663
-0.022434
-0.025687
-0.027063
-0.026093
-0.023066
-0.018447
-0.012764
-0.006518
-0.000132
0.006091
0.011988
0.017554
0.022970
0.028628
0.035184
0.043611
0.055258
0.079616
0.438159
0.439486
0.443193
0.448903
0.455482
0.459583
0.451082
0.396995
0.150794
-0.698155
-0.651615
-0.529635
-0.501045
-0.497448
-0.495517
-0.480854
-0.450781
-0.407105
-0.353295
-0.293629
-0.233104
-0.176702
-0.128755
-0.092649
-0.072162
-0.070149
-0.085477
-0.113641
-0.147161
-0.177514
-0.196934
-0.199212
-0.185535
-0.166632
-0.145828
-0.124664
-0.103855
-0.083780
-0.064703
-0.046869
-0.030532
-0.015960
-0.003439
0.006686
0.013917
0.017575
0.017057
0.012434
0.004901
-0.003488
-0.010691
-0.015326
-0.015998
-0.013672
-0.009483
-0.004562
0.000032
0.003377
0.004751
0.003709
0.000183
-0.005443
-0.012325
-0.019292
-0.025105
-0.028071
-0.028491
-0.026896
-0.023719
-0.019500
-0.014782
-0.010062
-0.005768
-0.002267
0.000114
0.001060
0.000287
-0.002389
-0.006935
-0.012997
-0.019883
-0.026672
-0.032422
-0.036387
-0.038143
-0.037224
-0.034019
-0.029073
-0.022997
-0.016370
-0.009671
-0.003243
0.002726
0.008206
0.013340
0.018468
0.024162
0.031263
0.040893
0.060294
0.469033
0.471672
0.479361
0.492617
0.512304
0.539477
0.574587
0.613464
0.691840
-0.003158
-0.582330
-0.513046
-0.500981
-0.499659
-0.504111
-0.494791
-0.470269
-0.431659
-0.383377
-0.329833
-0.276931
-0.229606
-0.190119
-0.160882
-0.145387
-0.134887
-0.132049
-0.138674
-0.151371
-0.165386
-0.175486
-0.177908
-0.171670
-0.156180
-0.138661
-0.120490
-0.102225
-0.084187
-0.066692
-0.050108
-0.034850
-0.021369
-0.010157
-0.001823
0.002830
0.002930
-0.001929
-0.010947
-0.021935
-0.032138
-0.039437
-0.042127
-0.040187
-0.034887
-0.027615
-0.019666
-0.012163
-0.006023
-0.001947
-0.000399
-0.001549
-0.005187
-0.010669
-0.016975
-0.022888
-0.027256
-0.028718
-0.027976
-0.025456
-0.021700
-0.017296
-0.012806
-0.008730
-0.005496
-0.003485
-0.003049
-0.004493
-0.008003
-0.013522
-0.020639
-0.028580
-0.036330
-0.042864
-0.047382
-0.049286
-0.048285
-0.044796
-0.039448
-0.032945
-0.025947
-0.018994
-0.012470
-0.006592
-0.001419
0.003148
0.007378
0.011730
0.016872
0.023671
0.037100
0.494976
0.498591
0.509222
0.527988
0.557052
0.600214
0.664140
0.760241
0.894720
0.929924
0.000000
-0.502847
-0.492648
-0.484202
-0.480984
-0.476911
-0.459689
-0.432108
-0.398776
-0.365475
-0.335331
-0.309154
-0.285925
-0.265288
-0.245065
-0.221215
-0.198401
-0.178850
-0.165294
-0.156987
-0.151619
-0.146630
-0.140218
-0.132029
-0.119416
-0.106059
-0.092249
-0.078155
-0.064073
-0.050463
-0.037896
-0.027014
-0.018552
-0.013403
-0.012616
-0.017038
-0.026527
-0.039341
-0.052485
-0.062938
-0.068744
-0.068357
-0.062935
-0.054078
-0.043385
-0.032273
-0.021900
-0.013147
-0.006648
-0.002812
-0.001824
-0.003576
-0.007593
-0.013025
-0.018767
-0.023725
-0.026605
-0.026908
-0.025387
-0.022478
-0.018764
-0.014845
-0.011276
-0.008543
-0.007078
-0.007272
-0.009451
-0.013800
-0.020233
-0.028290
-0.037132
-0.045681
-0.052851
-0.057788
-0.059705
-0.058509
-0.054667
-0.048891
-0.041974
-0.034659
-0.027547
-0.021063
-0.015458
-0.010821
-0.007100
-0.004104
-0.001496
0.001213
0.004648
0.011626
0.514206
0.518267
0.530181
0.551102
0.583117
0.629380
0.693597
0.777457
0.875150
0.965129
0.881621
0.000000
-0.476849
-0.461051
-0.446502
-0.437070
-0.426743
-0.414664
-0.404721
-0.400346
-0.400848
-0.401811
-0.397020
-0.381459
-0.348473
-0.307445
-0.263023
-0.219600
-0.181589
-0.151230
-0.128831
-0.113343
-0.102943
-0.095644
-0.089619
-0.081639
-0.073230
-0.064259
-0.054895
-0.045617
-0.037098
-0.030152
-0.025751
-0.025062
-0.029261
-0.038899
-0.053039
-0.069027
-0.083374
-0.093104
-0.096480
-0.092026
-0.082574
-0.069875
-0.055675
-0.041468
-0.028416
-0.017344
-0.008793
-0.003080
-0.000340
-0.000495
-0.003186
-0.007712
-0.013081
-0.018188
-0.022009
-0.023612
-0.023270
-0.021416
-0.018621
-0.015498
-0.012635
-0.010566
-0.009768
-0.010668
-0.013614
-0.018784
-0.026068
-0.034964
-0.044588
-0.053814
-0.061505
-0.066756
-0.068573
-0.067129
-0.062937
-0.056785
-0.049546
-0.042035
-0.034911
-0.028640
-0.023501
-0.019618
-0.016987
-0.015496
-0.014928
-0.014960
-0.015190
-0.014824
0.525910
0.529873
0.541406
0.561308
0.590843
0.631591
0.685040
0.750178
0.814043
0.836905
0.798113
0.684500
0.000000
-0.436974
-0.412898
-0.395477
-0.389648
-0.391256
-0.403926
-0.429188
-0.460843
-0.487679
-0.498875
-0.476538
-0.432861
-0.374277
-0.310003
-0.246743
-0.189689
-0.142053
-0.105306
-0.079463
-0.063264
-0.054488
-0.050486
-0.048396
-0.045348
-0.041835
-0.037755
-0.033541
-0.029938
-0.027916
-0.028690
-0.033638
-0.043860
-0.059322
-0.078154
-0.096932
-0.111935
-0.120515
-0.119534
-0.111143
-0.097674
-0.081278
-0.063851
-0.046917
-0.031595
-0.018631
-0.008463
-0.001304
0.002786
0.003897
0.002320
-0.001369
-0.006303
-0.011453
-0.015871
-0.018523
-0.019244
-0.018447
-0.016625
-0.014373
-0.012293
-0.010950
-0.010862
-0.012488
-0.016189
-0.022140
-0.030201
-0.039839
-0.050136
-0.059929
-0.068026
-0.073455
-0.075119
-0.073450
-0.069008
-0.062636
-0.055268
-0.047771
-0.040847
-0.034994
-0.030520
-0.027580
-0.026222
-0.026410
-0.028042
-0.030950
-0.034926
-0.041086
0.530277
0.533722
0.543678
0.560585
0.585031
0.617284
0.656143
0.696772
0.726027
0.717978
0.655186
0.570886
0.408108
0.000000
-0.385919
-0.358941
-0.357630
-0.367511
-0.395786
-0.443841
-0.503039
-0.552445
-0.569493
-0.537037
-0.479781
-0.407337
-0.329207
-0.252904
-0.183824
-0.125314
-0.079029
-0.045312
-0.023397
-0.011518
-0.007124
-0.007408
-0.009541
-0.011090
-0.012121
-0.013075
-0.014793
-0.018413
-0.025347
-0.037015
-0.054136
-0.075834
-0.099297
-0.120502
-0.135583
-0.141810
-0.136546
-0.124167
-0.107093
-0.087621
-0.067678
-0.048736
-0.031817
-0.017556
-0.006281
0.001890
0.006972
0.009074
0.008442
0.005543
0.001114
-0.003896
-0.008522
-0.011984
-0.013611
-0.013745
-0.012806
-0.011365
-0.010025
-0.009376
-0.009964
-0.012274
-0.016676
-0.023332
-0.032077
-0.042344
-0.053190
-0.063424
-0.071813
-0.077290
-0.078762
-0.076980
-0.072494
-0.066172
-0.058974
-0.051788
-0.045337
-0.040134
-0.036511
-0.034655
-0.034664
-0.036582
-0.040411
-0.046130
-0.053709
-0.066043
0.528275
0.530988
0.538724
0.551517
0.569198
0.590898
0.614104
0.633104
0.636827
0.607569
0.527866
0.389613
0.245329
-0.163829
-0.389197
-0.331145
-0.325842
-0.340932
-0.381648
-0.445984
-0.520741
-0.580113
-0.586392
-0.549148
-0.485134
-0.406230
-0.322402
-0.241110
-0.167393
-0.104241
-0.053121
-0.014435
0.012258
0.028156
0.035137
0.035557
0.031785
0.025929
0.020640
0.014934
0.007819
-0.001937
-0.015768
-0.034828
-0.059144
-0.086890
-0.114455
-0.137452
-0.152225
-0.154090
-0.145262
-0.129733
-0.110114
-0.088723
-0.067404
-0.047494
-0.029875
-0.015050
-0.003245
0.005505
0.011269
0.014170
0.014409
0.012342
0.008568
0.003918
-0.000693
-0.004480
-0.006793
-0.007635
-0.007392
-0.006606
-0.005880
-0.005817
-0.006988
-0.009894
-0.014905
-0.022160
-0.031462
-0.042214
-0.053453
-0.063980
-0.072575
-0.077747
-0.079218
-0.077560
-0.073346
-0.067441
-0.060795
-0.054284
-0.048614
-0.044298
-0.041679
-0.040975
-0.042338
-0.045886
-0.051727
-0.059968
-0.070754
-0.088582
0.521254
0.523110
0.528305
0.536578
0.547271
0.558915
0.568553
0.570780
0.556663
0.512945
0.422454
0.262487
-0.014517
-0.572988
-0.447248
-0.331960
-0.308756
-0.326372
-0.373259
-0.441290
-0.514647
-0.562433
-0.556939
-0.517305
-0.453897
-0.377460
-0.296965
-0.219001
-0.147891
-0.086092
-0.034707
0.006002
0.036218
0.056479
0.067849
0.071787
0.069851
0.063370
0.055913
0.046475
0.034324
0.018451
-0.002262
-0.028375
-0.059055
-0.091628
-0.121927
-0.145303
-0.157885
-0.155586
-0.144471
-0.127343
-0.106834
-0.085129
-0.063880
-0.044233
-0.026907
-0.012289
-0.000524
0.008404
0.014589
0.018157
0.019262
0.018155
0.015281
0.011315
0.007072
0.003306
0.000700
-0.000549
-0.000755
-0.000421
-0.000139
-0.000520
-0.002150
-0.005538
-0.011040
-0.018763
-0.028467
-0.039528
-0.050970
-0.061587
-0.070112
-0.074988
-0.076703
-0.075480
-0.071919
-0.066858
-0.061191
-0.055736
-0.051151
-0.047924
-0.046399
-0.046824
-0.049403
-0.054329
-0.061802
-0.072049
-0.085369
-0.107607
0.510800
0.511805
0.514522
0.518528
0.522940
0.526111
0.525190
0.515578
0.490387
0.440025
0.351884
0.209847
-0.005529
-0.272057
-0.313230
-0.297048
-0.297580
-0.321043
-0.365311
-0.423138
-0.477388
-0.499558
-0.490146
-0.453858
-0.398441
-0.332141
-0.262078
-0.193624
-0.130384
-0.074462
-0.026821
0.012352
0.043326
0.066548
0.082380
0.091090
0.093329
0.092303
0.085758
0.074436
0.058519
0.037684
0.011485
-0.019842
-0.054649
-0.089677
-0.120550
-0.142786
-0.150123
-0.146159
-0.134497
-0.117793
-0.098404
-0.078201
-0.058547
-0.040371
-0.024251
-0.010496
0.000777
0.009580
0.015999
0.020140
0.022117
0.022097
0.020384
0.017481
0.014054
0.010786
0.008306
0.006988
0.006598
0.006694
0.006709
0.006031
0.004069
0.000318
-0.005549
-0.013594
-0.023532
-0.034709
-0.046150
-0.056704
-0.064871
-0.069777
-0.071917
-0.071458
-0.068956
-0.065169
-0.060888
-0.056828
-0.053570
-0.051557
-0.051125
-0.052551
-0.056091
-0.062004
-0.070566
-0.082092
-0.097002
-0.122100
0.498488
0.498729
0.499253
0.499594
0.498841
0.495442
0.486942
0.469718
0.438790
0.387832
0.309546
0.197136
0.049952
-0.108297
-0.191377
-0.229716
-0.258275
-0.291398
-0.331888
-0.374600
-0.406703
-0.418199
-0.408764
-0.379828
-0.336077
-0.283160
-0.226321
-0.169756
-0.116447
-0.068270
-0.026202
0.009436
0.038749
0.062039
0.079617
0.091676
0.100671
0.105185
0.101641
0.090837
0.073720
0.050700
0.022081
-0.011117
-0.046599
-0.080787
-0.109455
-0.127023
-0.131329
-0.127383
-0.117287
-0.103198
-0.086944
-0.069934
-0.053195
-0.037449
-0.023180
-0.010691
-0.000141
0.008418
0.015006
0.019683
0.022522
0.023637
0.023232
0.021662
0.019437
0.017115
0.015318
0.014308
0.014009
0.014078
0.013992
0.013155
0.010978
0.006977
0.000864
-0.007361
-0.017358
-0.028445
-0.039653
-0.049835
-0.057605
-0.062958
-0.065845
-0.066513
-0.065459
-0.063317
-0.060734
-0.058292
-0.056476
-0.055676
-0.056222
-0.058423
-0.062581
-0.069007
-0.078015
-0.089958
-0.105307
-0.131244
0.485732
0.485329
0.484029
0.481409
0.476661
0.468468
0.454876
0.433203
0.400060
0.351596
0.284164
0.195839
0.089885
-0.019840
-0.102152
-0.158900
-0.202382
-0.241241
-0.278256
-0.310872
-0.332632
-0.340868
-0.333931
-0.312645
-0.279870
-0.239358
-0.194843
-0.149513
-0.105792
-0.065327
-0.029087
0.002495
0.029365
0.051710
0.069850
0.084448
0.095773
0.101645
0.100727
0.092706
0.077713
0.056186
0.029018
-0.002099
-0.034433
-0.064303
-0.087673
-0.099966
-0.104385
-0.102535
-0.096094
-0.086547
-0.075055
-0.062492
-0.049540
-0.036756
-0.024603
-0.013449
-0.003569
0.004854
0.011721
0.017002
0.020715
0.022944
0.023841
0.023660
0.022798
0.021850
0.021080
0.020690
0.020741
0.020983
0.020951
0.020074
0.017782
0.013623
0.007366
-0.000913
-0.010801
-0.021605
-0.032403
-0.041986
-0.049847
-0.055764
-0.059687
-0.061806
-0.062495
-0.062220
-0.061461
-0.060661
-0.060210
-0.060462
-0.061754
-0.064433
-0.068844
-0.075314
-0.084146
-0.095648
-0.110220
-0.134612
0.473729
0.472791
0.470012
0.465077
0.457349
0.445799
0.428961
0.404942
0.371539
0.326539
0.268316
0.196858
0.115384
0.031815
-0.040922
-0.099740
-0.147698
-0.188349
-0.223173
-0.251108
-0.269640
-0.277324
-0.273338
-0.258350
-0.234256
-0.203619
-0.169121
-0.133168
-0.097691
-0.064082
-0.033226
-0.005588
0.018689
0.039679
0.057582
0.072864
0.084435
0.091311
0.092480
0.087359
0.075801
0.058154
0.035440
0.009535
-0.016827
-0.040383
-0.057315
-0.068292
-0.074183
-0.075955
-0.074600
-0.070833
-0.065073
-0.057606
-0.048768
-0.039004
-0.028824
-0.018740
-0.009212
-0.000612
0.006800
0.012867
0.017519
0.020853
0.022988
0.024229
0.024857
0.025121
0.025310
0.025672
0.026242
0.026804
0.026938
0.026103
0.023759
0.019495
0.013155
0.004912
-0.004699
-0.015027
-0.025198
-0.034520
-0.042642
-0.049369
-0.054603
-0.058388
-0.060920
-0.062484
-0.063399
-0.063993
-0.064602
-0.065581
-0.067287
-0.070138
-0.074509
-0.080683
-0.088887
-0.099288
-0.112052
-0.132459
0.463468
0.462060
0.458043
0.451280
0.441344
0.427485
0.408647
0.383536
0.350761
0.309106
0.257959
0.197919
0.131498
0.063444
0.000060
-0.055462
-0.102920
-0.143130
-0.176473
-0.202413
-0.219971
-0.228130
-0.226749
-0.216507
-0.198828
-0.175595
-0.148805
-0.120304
-0.091609
-0.063846
-0.037752
-0.013735
0.008045
0.027584
0.044930
0.059993
0.071877
0.079868
0.083168
0.081174
0.073665
0.060953
0.044031
0.024627
0.005046
-0.012327
-0.026436
-0.037311
-0.045403
-0.051355
-0.055596
-0.058094
-0.058427
-0.056168
-0.051271
-0.044137
-0.035423
-0.025867
-0.016181
-0.006989
0.001288
0.008384
0.014213
0.018744
0.022096
0.024431
0.026054
0.027255
0.028301
0.029369
0.030459
0.031364
0.031683
0.030897
0.028491
0.024098
0.017657
0.009442
0.000112
-0.009687
-0.019271
-0.028394
-0.036957
-0.044743
-0.051454
-0.056890
-0.061054
-0.064092
-0.066210
-0.067679
-0.068840
-0.070147
-0.071918
-0.074688
-0.078870
-0.084640
-0.092094
-0.101161
-0.111629
-0.126188
0.455825
0.453897
0.448699
0.440388
0.428757
0.413285
0.393217
0.367674
0.335790
0.296922
0.250939
0.198565
0.141686
0.083351
0.027212
-0.024122
-0.069429
-0.108273
-0.140349
-0.165211
-0.182356
-0.191133
-0.191741
-0.184903
-0.171825
-0.154012
-0.133047
-0.110381
-0.087204
-0.064380
-0.042455
-0.021709
-0.002229
0.015988
0.032879
0.047891
0.060397
0.069771
0.075317
0.076467
0.072974
0.065096
0.053708
0.040214
0.026261
0.012548
0.000357
-0.010524
-0.020638
-0.030514
-0.040219
-0.049015
-0.055445
-0.058097
-0.056491
-0.051174
-0.043110
-0.033385
-0.022979
-0.012769
-0.003481
0.004685
0.011564
0.017099
0.021393
0.024632
0.027085
0.029038
0.030740
0.032341
0.033822
0.034983
0.035419
0.034598
0.032016
0.027321
0.020432
0.011930
0.002706
-0.006387
-0.015302
-0.024265
-0.033383
-0.042319
-0.050423
-0.057155
-0.062368
-0.066202
-0.068852
-0.070580
-0.071660
-0.073008
-0.074967
-0.077760
-0.081703
-0.087085
-0.093881
-0.101800
-0.110261
-0.119320
0.451769
0.448950
0.442321
0.432513
0.419483
0.402829
0.381970
0.356285
0.325226
0.288465
0.246087
0.198789
0.148014
0.095897
0.044905
-0.002838
-0.045849
-0.083156
-0.114053
-0.138125
-0.154901
-0.164095
-0.166056
-0.161548
-0.151682
-0.137764
-0.121123
-0.102944
-0.084163
-0.065420
-0.047068
-0.029233
-0.011860
0.005237
0.021975
0.037361
0.050903
0.061914
0.069681
0.073623
0.073461
0.069407
0.062286
0.053293
0.042755
0.032120
0.021638
0.010919
-0.000714
-0.013832
-0.028374
-0.043058
-0.055249
-0.062103
-0.062562
-0.057911
-0.049587
-0.038858
-0.027898
-0.017005
-0.006693
0.002466
0.010238
0.016582
0.021601
0.025494
0.028521
0.030967
0.033089
0.035036
0.036761
0.038094
0.038567
0.037478
0.034240
0.028566
0.020803
0.011881
0.002831
-0.005671
-0.013836
-0.022378
-0.031725
-0.041472
-0.050560
-0.058009
-0.063498
-0.067301
-0.069808
-0.071722
-0.073255
-0.074557
-0.076368
-0.079126
-0.083060
-0.088309
-0.094810
-0.102143
-0.109581
-0.115796
0.452979
0.447711
0.438919
0.427509
0.413271
0.395728
0.374322
0.348580
0.318129
0.282805
0.242779
0.198686
0.151690
0.103432
0.055816
0.010658
-0.030535
-0.066565
-0.096405
-0.119936
-0.136408
-0.145845
-0.148674
-0.145682
-0.137925
-0.126594
-0.112861
-0.097742
-0.082010
-0.066154
-0.050412
-0.034841
-0.019343
-0.003489
0.013057
0.029138
0.044046
0.056814
0.066579
0.072692
0.074825
0.073160
0.068726
0.062002
0.053877
0.045184
0.035805
0.025231
0.012753
-0.002230
-0.019741
-0.038477
-0.055164
-0.065356
-0.066331
-0.060479
-0.052159
-0.041946
-0.030189
-0.018453
-0.007494
0.002222
0.010486
0.017273
0.022684
0.026910
0.030194
0.032816
0.035088
0.037213
0.039036
0.040220
0.040316
0.038823
0.035107
0.028783
0.020161
0.010365
0.000866
-0.007417
-0.014778
-0.022329
-0.030913
-0.040343
-0.049557
-0.057396
-0.063294
-0.067401
-0.070263
-0.072046
-0.073469
-0.074903
-0.076805
-0.079670
-0.083778
-0.089164
-0.095622
-0.102809
-0.110132
-0.116789
0.463952
0.449848
0.437946
0.425149
0.410063
0.391908
0.370178
0.344422
0.314331
0.279801
0.241021
0.198566
0.153449
0.107088
0.061149
0.017308
-0.022968
-0.058557
-0.088692
-0.112026
-0.128419
-0.137999
-0.141232
-0.138896
-0.132010
-0.121703
-0.109077
-0.095082
-0.080430
-0.065571
-0.050716
-0.035915
-0.021140
-0.006386
0.008714
0.025137
0.041028
0.054921
0.065761
0.072847
0.075830
0.074785
0.070148
0.063534
0.056142
0.048067
0.039112
0.028782
0.016434
0.001582
-0.015695
-0.034180
-0.051023
-0.062301
-0.065573
-0.061212
-0.052078
-0.041291
-0.029596
-0.017911
-0.006961
0.002787
0.011112
0.017976
0.023467
0.027754
0.031057
0.033623
0.035686
0.037454
0.038996
0.039939
0.039809
0.038096
0.034284
0.028078
0.019724
0.010145
0.000617
-0.007959
-0.015644
-0.023234
-0.031424
-0.040174
-0.048755
-0.056284
-0.062237
-0.066601
-0.069694
-0.071856
-0.073538
-0.075225
-0.077426
-0.080472
-0.084620
-0.089918
-0.096209
-0.103188
-0.110450
-0.118020
