# vtk DataFile Version 3.0
Vector Field
ASCII
DATASET RECTILINEAR_GRID
DIMENSIONS 100 26 1
X_COORDINATES 100 double
0.050000 0.150000 0.250000 0.350000 0.450000 0.550000 0.650000 0.750000 0.850000 0.950000 1.050000 1.150000 1.250000 1.350000 1.450000 1.550000 1.650000 1.750000 1.850000 1.950000 2.050000 2.150000 2.250000 2.350000 2.450000 2.550000 2.650000 2.750000 2.850000 2.950000 3.050000 3.150000 3.250000 3.350000 3.450000 3.550000 3.650000 3.750000 3.850000 3.950000 4.050000 4.150000 4.250000 4.350000 4.450000 4.550000 4.650000 4.750000 4.850000 4.950000 5.050000 5.150000 5.250000 5.350000 5.450000 5.550000 5.650000 5.750000 5.850000 5.950000 6.050000 6.150000 6.250000 6.350000 6.450000 6.550000 6.650000 6.750000 6.850000 6.950000 7.050000 7.150000 7.250000 7.350000 7.450000 7.550000 7.650000 7.750000 7.850000 7.950000 8.050000 8.150000 8.250000 8.350000 8.450000 8.550000 8.650000 8.750000 8.850000 8.950000 9.050000 9.150000 9.250000 9.350000 9.450000 9.550000 9.650000 9.750000 9.850000 9.950000 
Y_COORDINATES 26 double
0.050000 0.150000 0.250000 0.350000 0.450000 0.550000 0.650000 0.750000 0.850000 0.950000 1.050000 1.150000 1.250000 1.350000 1.450000 1.550000 1.650000 1.750000 1.850000 1.950000 2.050000 2.150000 2.250000 2.350000 2.450000 2.550000 
Z_COORDINATES 1 double
0.0
POINT_DATA 2600
VECTORS Vektorfeld double
0.997748 0.002252 0.0
0.993265 0.002230 0.0
0.990351 0.000683 0.0
0.991143 -0.001476 0.0
0.996449 -0.003830 0.0
1.006379 -0.006101 0.0
1.020503 -0.008023 0.0
1.037858 -0.009332 0.0
1.056988 -0.009798 0.0
1.076080 -0.009295 0.0
1.093244 -0.007869 0.0
1.106835 -0.005722 0.0
1.115703 -0.003146 0.0
1.119327 -0.000477 0.0
1.117840 0.001963 0.0
1.111768 0.004109 0.0
1.101799 0.005861 0.0
1.088799 0.007139 0.0
1.073759 0.007901 0.0
1.057712 0.008146 0.0
1.041639 0.007927 0.0
1.026367 0.007344 0.0
1.012470 0.006552 0.0
1.000160 0.005758 0.0
0.989195 0.005208 0.0
0.978832 0.005156 0.0
0.967871 0.005806 0.0
0.954813 0.007252 0.0
0.938114 0.009447 0.0
0.916446 0.012220 0.0
0.888904 0.015322 0.0
0.855108 0.018474 0.0
0.815227 0.021407 0.0
0.769934 0.023886 0.0
0.720337 0.025712 0.0
0.667896 0.026729 0.0
0.614349 0.026817 0.0
0.561636 0.025896 0.0
0.511815 0.023926 0.0
0.467016 0.020873 0.0
0.429605 0.016538 0.0
0.402593 0.010474 0.0
0.389348 0.002771 0.0
0.390323 -0.003746 0.0
0.401412 -0.007344 0.0
0.417680 -0.008924 0.0
0.435868 -0.009264 0.0
0.453988 -0.008857 0.0
0.470826 -0.007982 0.0
0.485594 -0.006785 0.0
0.497737 -0.005358 0.0
0.506892 -0.003797 0.0
0.512925 -0.002236 0.0
0.515931 -0.000770 0.0
0.515694 0.001007 0.0
0.511146 0.003542 0.0
0.501030 0.006575 0.0
0.484678 0.009777 0.0
0.462260 0.012641 0.0
0.435172 0.014447 0.0
0.406237 0.014488 0.0
0.379164 0.012584 0.0
0.357144 0.009436 0.0
0.341432 0.006276 0.0
0.331144 0.004012 0.0
0.324410 0.002722 0.0
0.319784 0.001905 0.0
0.316787 0.001092 0.0
0.315491 0.000204 0.0
0.315831 -0.000545 0.0
0.317456 -0.001081 0.0
0.319867 -0.001329 0.0
0.322568 -0.001372 0.0
0.325182 -0.001243 0.0
0.327389 -0.000964 0.0
0.328916 -0.000563 0.0
0.329509 -0.000030 0.0
0.328790 0.000749 0.0
0.326429 0.001612 0.0
0.322536 0.002280 0.0
0.317690 0.002566 0.0
0.312746 0.002377 0.0
0.308665 0.001704 0.0
0.306230 0.000731 0.0
0.305603 -0.000104 0.0
0.306177 -0.000470 0.0
0.307186 -0.000539 0.0
0.308215 -0.000491 0.0
0.309113 -0.000406 0.0
0.309826 -0.000307 0.0
0.310336 -0.000202 0.0
0.310642 -0.000103 0.0
0.310775 -0.000030 0.0
0.310822 -0.000017 0.0
0.310983 -0.000144 0.0
0.311522 -0.000395 0.0
0.312680 -0.000763 0.0
0.314558 -0.001116 0.0
0.316927 -0.001252 0.0
0.319100 -0.000921 0.0
1.003043 0.001462 0.0
1.011860 -0.001312 0.0
1.025561 -0.006561 0.0
1.043485 -0.012947 0.0
1.065511 -0.019691 0.0
1.091471 -0.026130 0.0
1.120913 -0.031560 0.0
1.152979 -0.035217 0.0
1.186350 -0.036413 0.0
1.219314 -0.034737 0.0
1.250056 -0.030333 0.0
1.277042 -0.023835 0.0
1.299255 -0.016115 0.0
1.316183 -0.008059 0.0
1.327657 -0.000442 0.0
1.333967 0.006276 0.0
1.335864 0.011766 0.0
1.334318 0.015780 0.0
1.330420 0.018198 0.0
1.325282 0.019033 0.0
1.319959 0.018437 0.0
1.315352 0.016713 0.0
1.312108 0.014325 0.0
1.310499 0.011904 0.0
1.310313 0.010213 0.0
1.310784 0.010043 0.0
1.310623 0.012041 0.0
1.308189 0.016508 0.0
1.301784 0.023296 0.0
1.289960 0.031864 0.0
1.271740 0.041441 0.0
1.246715 0.051175 0.0
1.215045 0.060258 0.0
1.177393 0.067980 0.0
1.134850 0.073758 0.0
1.088849 0.077125 0.0
1.041092 0.077725 0.0
0.993483 0.075309 0.0
0.948092 0.069726 0.0
0.907092 0.060871 0.0
0.872484 0.048558 0.0
0.845159 0.032791 0.0
0.823847 0.015012 0.0
0.807783 -0.000897 0.0
0.798784 -0.012283 0.0
0.797786 -0.019256 0.0
0.803733 -0.023067 0.0
0.815322 -0.024761 0.0
0.831435 -0.025029 0.0
0.851154 -0.024225 0.0
0.873546 -0.022454 0.0
0.897363 -0.019672 0.0
0.920736 -0.015767 0.0
0.941058 -0.010567 0.0
0.955863 -0.003764 0.0
0.964148 0.004576 0.0
0.965783 0.014021 0.0
0.960712 0.023754 0.0
0.949302 0.032492 0.0
0.932259 0.038727 0.0
0.910230 0.041172 0.0
0.883574 0.039628 0.0
0.852637 0.035351 0.0
0.818430 0.030282 0.0
0.783074 0.025649 0.0
0.749581 0.021311 0.0
0.721129 0.016395 0.0
0.700269 0.010459 0.0
0.688284 0.004118 0.0
0.684756 -0.001270 0.0
0.687535 -0.004760 0.0
0.694173 -0.006698 0.0
0.703194 -0.007725 0.0
0.713629 -0.007939 0.0
0.724478 -0.007324 0.0
0.734673 -0.005925 0.0
0.743264 -0.003851 0.0
0.749894 -0.001340 0.0
0.754876 0.001079 0.0
0.758625 0.002956 0.0
0.761349 0.004013 0.0
0.763144 0.004080 0.0
0.763983 0.003244 0.0
0.763637 0.001973 0.0
0.761967 0.000950 0.0
0.759361 0.000508 0.0
0.756386 0.000450 0.0
0.753291 0.000587 0.0
0.750064 0.000845 0.0
0.746597 0.001195 0.0
0.742798 0.001584 0.0
0.738690 0.001913 0.0
0.734460 0.002051 0.0
0.730470 0.001846 0.0
0.727160 0.001142 0.0
0.725070 -0.000130 0.0
0.724651 -0.001766 0.0
0.725935 -0.003276 0.0
0.728667 -0.004193 0.0
0.731314 -0.002800 0.0
1.001956 -0.003538 0.0
1.008955 -0.012129 0.0
1.021699 -0.022189 0.0
1.039630 -0.033174 0.0
1.062581 -0.044441 0.0
1.090417 -0.055175 0.0
1.122763 -0.064303 0.0
1.158745 -0.070522 0.0
1.196802 -0.072536 0.0
1.234644 -0.069420 0.0
1.269733 -0.061480 0.0
1.300070 -0.050012 0.0
1.324545 -0.036626 0.0
1.342853 -0.022784 0.0
1.355289 -0.009628 0.0
1.362497 0.001943 0.0
1.365342 0.011357 0.0
1.364845 0.018232 0.0
1.362100 0.022389 0.0
1.358241 0.023839 0.0
1.354391 0.022805 0.0
1.351594 0.019748 0.0
1.350734 0.015394 0.0
1.352417 0.010760 0.0
1.356817 0.007144 0.0
1.363482 0.005975 0.0
1.371251 0.008501 0.0
1.378378 0.015355 0.0
1.382924 0.026309 0.0
1.383193 0.040406 0.0
1.378003 0.056309 0.0
1.366754 0.072581 0.0
1.349391 0.087886 0.0
1.326310 0.101085 0.0
1.298256 0.111250 0.0
1.266236 0.117653 0.0
1.231448 0.119743 0.0
1.195219 0.117129 0.0
1.158924 0.109592 0.0
1.123833 0.097097 0.0
1.090828 0.079945 0.0
1.060224 0.059332 0.0
1.032179 0.037827 0.0
1.006819 0.017712 0.0
0.984587 0.000339 0.0
0.967099 -0.013392 0.0
0.955767 -0.023546 0.0
0.950845 -0.030949 0.0
0.952232 -0.036340 0.0
0.959677 -0.040078 0.0
0.972793 -0.042110 0.0
0.991015 -0.042055 0.0
1.013586 -0.039328 0.0
1.039551 -0.033293 0.0
1.067457 -0.023749 0.0
1.094909 -0.011176 0.0
1.119336 0.003710 0.0
1.138963 0.019509 0.0
1.152692 0.034419 0.0
1.159644 0.046891 0.0
1.158993 0.055687 0.0
1.150209 0.060552 0.0
1.133449 0.062123 0.0
1.109882 0.061284 0.0
1.081510 0.058373 0.0
1.050538 0.053052 0.0
1.018664 0.044981 0.0
0.986756 0.034641 0.0
0.955267 0.023410 0.0
0.925467 0.012767 0.0
0.900414 0.003476 0.0
0.883251 -0.004410 0.0
0.874512 -0.010296 0.0
0.872548 -0.013840 0.0
0.875583 -0.015308 0.0
0.882393 -0.014946 0.0
0.891985 -0.013013 0.0
0.903269 -0.010093 0.0
0.914982 -0.006862 0.0
0.926003 -0.003872 0.0
0.935689 -0.001570 0.0
0.943796 -0.000239 0.0
0.950329 0.000189 0.0
0.955598 0.000106 0.0
0.960184 -0.000100 0.0
0.964671 -0.000324 0.0
0.969430 -0.000503 0.0
0.974620 -0.000555 0.0
0.980228 -0.000394 0.0
0.986111 0.000018 0.0
0.992034 0.000637 0.0
0.997672 0.001330 0.0
1.002612 0.001922 0.0
1.006325 0.002252 0.0
1.008196 0.002174 0.0
1.007570 0.001554 0.0
1.004048 0.000491 0.0
0.998076 -0.000845 0.0
0.991160 -0.002440 0.0
0.987200 -0.003240 0.0
1.001581 -0.007074 0.0
1.007703 -0.021714 0.0
1.019618 -0.037263 0.0
1.037224 -0.053638 0.0
1.060677 -0.070380 0.0
1.090193 -0.086589 0.0
1.125754 -0.100796 0.0
1.166668 -0.110923 0.0
1.211154 -0.114678 0.0
1.255796 -0.109762 0.0
1.296493 -0.096923 0.0
1.330418 -0.078830 0.0
1.356444 -0.058310 0.0
1.374648 -0.037612 0.0
1.385761 -0.018347 0.0
1.390834 -0.001620 0.0
1.391071 0.011837 0.0
1.387731 0.021590 0.0
1.382109 0.027399 0.0
1.375546 0.029250 0.0
1.369396 0.027394 0.0
1.364965 0.022387 0.0
1.363453 0.015127 0.0
1.365866 0.006929 0.0
1.372746 -0.000304 0.0
1.383701 -0.004198 0.0
1.397181 -0.002575 0.0
1.410767 0.005718 0.0
1.421851 0.020315 0.0
1.428365 0.039616 0.0
1.429116 0.061537 0.0
1.423734 0.083984 0.0
1.412449 0.105131 0.0
1.395856 0.123514 0.0
1.374720 0.138010 0.0
1.349859 0.147774 0.0
1.322082 0.152187 0.0
1.292159 0.150837 0.0
1.260786 0.143551 0.0
1.228526 0.130489 0.0
1.195751 0.112333 0.0
1.162750 0.090551 0.0
1.130061 0.067343 0.0
1.098719 0.044898 0.0
1.069825 0.024279 0.0
1.044170 0.005812 0.0
1.022952 -0.010199 0.0
1.007422 -0.023846 0.0
0.998095 -0.035503 0.0
0.995073 -0.045338 0.0
0.998244 -0.053137 0.0
1.007420 -0.058426 0.0
1.022504 -0.060612 0.0
1.043604 -0.059074 0.0
1.070913 -0.053184 0.0
1.104229 -0.042508 0.0
1.142109 -0.027265 0.0
1.181323 -0.008358 0.0
1.217399 0.012482 0.0
1.246598 0.032677 0.0
1.267060 0.050091 0.0
1.277956 0.064036 0.0
1.279144 0.074211 0.0
1.271324 0.080583 0.0
1.255771 0.082999 0.0
1.233926 0.081242 0.0
1.207134 0.075457 0.0
1.176748 0.066459 0.0
1.144402 0.055426 0.0
1.111805 0.043148 0.0
1.079977 0.029977 0.0
1.049357 0.016873 0.0
1.021370 0.005148 0.0
0.998586 -0.004535 0.0
0.982627 -0.011688 0.0
0.973204 -0.015953 0.0
0.969099 -0.017493 0.0
0.968980 -0.016778 0.0
0.971501 -0.014410 0.0
0.975339 -0.011182 0.0
0.979342 -0.007949 0.0
0.982747 -0.005372 0.0
0.985355 -0.003819 0.0
0.987580 -0.003380 0.0
0.990339 -0.003959 0.0
0.994750 -0.005363 0.0
1.001837 -0.007311 0.0
1.012331 -0.009431 0.0
1.026505 -0.011300 0.0
1.044087 -0.012542 0.0
1.064259 -0.012898 0.0
1.085740 -0.012254 0.0
1.106946 -0.010640 0.0
1.126260 -0.008211 0.0
1.142301 -0.005275 0.0
1.154170 -0.002239 0.0
1.161623 0.000353 0.0
1.165048 0.001840 0.0
1.165311 0.001529 0.0
1.165334 -0.003272 0.0
1.001395 -0.010050 0.0
1.006950 -0.030416 0.0
1.018120 -0.051645 0.0
1.035242 -0.073985 0.0
1.058983 -0.097226 0.0
1.090222 -0.120498 0.0
1.129724 -0.141951 0.0
1.177431 -0.158390 0.0
1.231792 -0.166059 0.0
1.287082 -0.158312 0.0
1.335678 -0.137666 0.0
1.373654 -0.109987 0.0
1.400530 -0.080055 0.0
1.417383 -0.050924 0.0
1.425734 -0.024498 0.0
1.427179 -0.001987 0.0
1.423232 0.015913 0.0
1.415349 0.028737 0.0
1.405046 0.036177 0.0
1.393915 0.038165 0.0
1.383592 0.034951 0.0
1.375710 0.027145 0.0
1.371855 0.015736 0.0
1.373564 0.002198 0.0
1.381978 -0.010867 0.0
1.397086 -0.019698 0.0
1.417044 -0.020512 0.0
1.438167 -0.011053 0.0
1.456095 0.008074 0.0
1.467664 0.033775 0.0
1.471597 0.062693 0.0
1.467953 0.091854 0.0
1.457571 0.118929 0.0
1.441612 0.142268 0.0
1.421232 0.160772 0.0
1.397401 0.173705 0.0
1.370855 0.180580 0.0
1.342111 0.181111 0.0
1.311505 0.175255 0.0
1.279246 0.163304 0.0
1.245504 0.146035 0.0
1.210571 0.124783 0.0
1.175073 0.101298 0.0
1.140062 0.077296 0.0
1.106840 0.053998 0.0
1.076608 0.031981 0.0
1.050139 0.011319 0.0
1.028025 -0.007721 0.0
1.010655 -0.024930 0.0
0.997942 -0.040175 0.0
0.989720 -0.053248 0.0
0.986169 -0.063939 0.0
0.988056 -0.072070 0.0
0.996766 -0.077427 0.0
1.013994 -0.079369 0.0
1.041096 -0.076741 0.0
1.078441 -0.068257 0.0
1.124938 -0.053076 0.0
1.177511 -0.031448 0.0
1.230247 -0.005329 0.0
1.275700 0.022182 0.0
1.309460 0.047288 0.0
1.331052 0.068180 0.0
1.341218 0.084268 0.0
1.341007 0.095080 0.0
1.331640 0.100374 0.0
1.314427 0.100331 0.0
1.290805 0.095593 0.0
1.262377 0.087066 0.0
1.230800 0.075683 0.0
1.197652 0.062418 0.0
1.164435 0.048268 0.0
1.132321 0.033852 0.0
1.101934 0.019932 0.0
1.074024 0.007714 0.0
1.049917 -0.001825 0.0
1.030558 -0.008157 0.0
1.015653 -0.011089 0.0
1.003989 -0.010957 0.0
0.994124 -0.008610 0.0
0.984824 -0.005225 0.0
0.975400 -0.002077 0.0
0.965958 -0.000278 0.0
0.957363 -0.000551 0.0
0.950994 -0.003179 0.0
0.948422 -0.007982 0.0
0.951003 -0.014360 0.0
0.959556 -0.021429 0.0
0.974274 -0.028192 0.0
0.994782 -0.033739 0.0
1.020283 -0.037373 0.0
1.049673 -0.038649 0.0
1.081609 -0.037387 0.0
1.114520 -0.033689 0.0
1.146623 -0.027942 0.0
1.176018 -0.020836 0.0
1.200923 -0.013408 0.0
1.220093 -0.006994 0.0
1.233247 -0.003054 0.0
1.241527 -0.006993 0.0
1.001209 -0.012654 0.0
1.006083 -0.038242 0.0
1.016109 -0.065015 0.0
1.032018 -0.093647 0.0
1.055101 -0.124389 0.0
1.087229 -0.156702 0.0
1.130622 -0.188641 0.0
1.186836 -0.215621 0.0
1.256408 -0.232761 0.0
1.328035 -0.218527 0.0
1.385753 -0.183766 0.0
1.425702 -0.141812 0.0
1.450364 -0.099768 0.0
1.463028 -0.060729 0.0
1.466300 -0.026317 0.0
1.462201 0.002487 0.0
1.452290 0.025296 0.0
1.438000 0.041527 0.0
1.420977 0.050713 0.0
1.403062 0.052676 0.0
1.386194 0.047630 0.0
1.372307 0.036235 0.0
1.363237 0.019570 0.0
1.360844 -0.000950 0.0
1.367224 -0.022513 0.0
1.383640 -0.039576 0.0
1.408924 -0.045877 0.0
1.439000 -0.036887 0.0
1.467283 -0.012302 0.0
1.487338 0.022526 0.0
1.496500 0.060846 0.0
1.495444 0.098400 0.0
1.485888 0.132322 0.0
1.469769 0.160953 0.0
1.448782 0.183455 0.0
1.424195 0.199439 0.0
1.396853 0.208733 0.0
1.367251 0.211304 0.0
1.335637 0.207281 0.0
1.302134 0.197040 0.0
1.266872 0.181303 0.0
1.230156 0.161164 0.0
1.192607 0.137963 0.0
1.155209 0.113041 0.0
1.119170 0.087514 0.0
1.085632 0.062235 0.0
1.055254 0.037912 0.0
1.027840 0.015214 0.0
1.002471 -0.005126 0.0
0.978157 -0.022954 0.0
0.954713 -0.038802 0.0
0.933481 -0.053603 0.0
0.917241 -0.068053 0.0
0.909521 -0.082433 0.0
0.913527 -0.095597 0.0
0.931084 -0.105171 0.0
0.962405 -0.108493 0.0
1.006454 -0.103387 0.0
1.061292 -0.088548 0.0
1.124097 -0.063770 0.0
1.190189 -0.030921 0.0
1.251282 0.005538 0.0
1.299399 0.040221 0.0
1.332425 0.069034 0.0
1.351719 0.091230 0.0
1.358794 0.106514 0.0
1.355181 0.115016 0.0
1.342461 0.117250 0.0
1.322287 0.114010 0.0
1.296349 0.106254 0.0
1.266312 0.095033 0.0
1.233766 0.081416 0.0
1.200152 0.066432 0.0
1.166738 0.051155 0.0
1.134533 0.036605 0.0
1.104076 0.023848 0.0
1.075446 0.014159 0.0
1.048453 0.008493 0.0
1.022645 0.006934 0.0
0.997435 0.008574 0.0
0.972614 0.011712 0.0
0.948734 0.014289 0.0
0.927063 0.014469 0.0
0.909247 0.011112 0.0
0.896861 0.003913 0.0
0.891076 -0.006718 0.0
0.892558 -0.019687 0.0
0.901331 -0.033428 0.0
0.916824 -0.046403 0.0
0.938162 -0.057375 0.0
0.964388 -0.065464 0.0
0.994546 -0.070107 0.0
1.027688 -0.071008 0.0
1.062824 -0.068116 0.0
1.098851 -0.061646 0.0
1.134491 -0.052167 0.0
1.168236 -0.040727 0.0
1.198345 -0.028954 0.0
1.222990 -0.018893 0.0
1.239847 -0.016290 0.0
1.000937 -0.014799 0.0
1.004746 -0.044780 0.0
1.012756 -0.076511 0.0
1.025981 -0.111285 0.0
1.046315 -0.150168 0.0
1.076855 -0.193590 0.0
1.122136 -0.240427 0.0
1.187218 -0.285130 0.0
1.280200 -0.325805 0.0
1.374627 -0.291538 0.0
1.436123 -0.229969 0.0
1.468842 -0.168275 0.0
1.483712 -0.112837 0.0
1.487323 -0.063936 0.0
1.482801 -0.021861 0.0
1.471400 0.013532 0.0
1.453783 0.041779 0.0
1.431173 0.061945 0.0
1.405238 0.073253 0.0
1.377967 0.075323 0.0
1.351529 0.068290 0.0
1.328111 0.052882 0.0
1.309665 0.030439 0.0
1.297688 0.002551 0.0
1.294670 -0.029377 0.0
1.303859 -0.058317 0.0
1.326586 -0.075148 0.0
1.361141 -0.072248 0.0
1.401821 -0.045903 0.0
1.438080 -0.000188 0.0
1.461079 0.051401 0.0
1.469934 0.100046 0.0
1.467671 0.142494 0.0
1.457146 0.177423 0.0
1.440547 0.204572 0.0
1.419361 0.224096 0.0
1.394523 0.236255 0.0
1.366592 0.241316 0.0
1.335890 0.239585 0.0
1.302635 0.231494 0.0
1.267070 0.217676 0.0
1.229591 0.198985 0.0
1.190858 0.176424 0.0
1.151807 0.151029 0.0
1.113523 0.123847 0.0
1.076868 0.096094 0.0
1.041928 0.069370 0.0
1.007599 0.045499 0.0
0.971858 0.025700 0.0
0.932949 0.009442 0.0
0.891298 -0.006102 0.0
0.851019 -0.024793 0.0
0.819185 -0.048789 0.0
0.801995 -0.076787 0.0
0.801711 -0.104965 0.0
0.817351 -0.129000 0.0
0.846756 -0.145390 0.0
0.887902 -0.151686 0.0
0.939148 -0.146333 0.0
0.998942 -0.128583 0.0
1.065386 -0.098644 0.0
1.135694 -0.058141 0.0
1.203780 -0.012302 0.0
1.260554 0.031758 0.0
1.301450 0.068318 0.0
1.327439 0.096362 0.0
1.340204 0.116017 0.0
1.341427 0.127746 0.0
1.332816 0.132299 0.0
1.316081 0.130638 0.0
1.292904 0.123863 0.0
1.264887 0.113149 0.0
1.233495 0.099705 0.0
1.199985 0.084806 0.0
1.165310 0.069834 0.0
1.130036 0.056350 0.0
1.094374 0.045950 0.0
1.058315 0.039754 0.0
1.021904 0.037891 0.0
0.985608 0.039123 0.0
0.950534 0.041058 0.0
0.918403 0.040955 0.0
0.891228 0.036650 0.0
0.870832 0.027144 0.0
0.858416 0.012684 0.0
0.854322 -0.005611 0.0
0.858068 -0.026023 0.0
0.868685 -0.046482 0.0
0.885076 -0.065232 0.0
0.906208 -0.081017 0.0
0.931187 -0.093026 0.0
0.959255 -0.100771 0.0
0.989753 -0.103985 0.0
1.022056 -0.102578 0.0
1.055497 -0.096652 0.0
1.089278 -0.086581 0.0
1.122361 -0.073141 0.0
1.153357 -0.057645 0.0
1.180462 -0.041952 0.0
1.200222 -0.029849 0.0
1.000534 -0.016269 0.0
1.002719 -0.049305 0.0
1.007457 -0.084733 0.0
1.015786 -0.124618 0.0
1.029864 -0.171247 0.0
1.053783 -0.226970 0.0
1.094915 -0.293462 0.0
1.164719 -0.366982 0.0
1.290791 -0.463007 0.0
1.407869 -0.365842 0.0
1.449005 -0.258296 0.0
1.452845 -0.176507 0.0
1.445705 -0.112334 0.0
1.435244 -0.057588 0.0
1.421525 -0.009968 0.0
1.402640 0.031926 0.0
1.377369 0.066273 0.0
1.346093 0.091336 0.0
1.310099 0.105792 0.0
1.271244 0.108908 0.0
1.231731 0.100655 0.0
1.193879 0.081787 0.0
1.159905 0.053954 0.0
1.131389 0.019529 0.0
1.108978 -0.020926 0.0
1.097176 -0.064154 0.0
1.103371 -0.098232 0.0
1.131406 -0.111755 0.0
1.180001 -0.095670 0.0
1.240874 -0.047553 0.0
1.296396 0.020245 0.0
1.334026 0.084717 0.0
1.355454 0.138658 0.0
1.365111 0.182127 0.0
1.365700 0.215878 0.0
1.358887 0.240790 0.0
1.345727 0.257559 0.0
1.326962 0.266708 0.0
1.303179 0.268678 0.0
1.274901 0.263933 0.0
1.242671 0.253032 0.0
1.207126 0.236653 0.0
1.169054 0.215563 0.0
1.129361 0.190634 0.0
1.088808 0.163079 0.0
1.047363 0.134963 0.0
1.003424 0.109379 0.0
0.954074 0.089169 0.0
0.897576 0.074270 0.0
0.837014 0.060342 0.0
0.780898 0.040765 0.0
0.738604 0.010914 0.0
0.715140 -0.029198 0.0
0.710133 -0.074181 0.0
0.720057 -0.117212 0.0
0.741123 -0.153460 0.0
0.770891 -0.180102 0.0
0.808213 -0.195442 0.0
0.852688 -0.198297 0.0
0.904103 -0.187828 0.0
0.961989 -0.163730 0.0
1.025277 -0.126651 0.0
1.092024 -0.078625 0.0
1.158001 -0.024670 0.0
1.215115 0.026737 0.0
1.257777 0.069291 0.0
1.286128 0.101972 0.0
1.301547 0.125149 0.0
1.305543 0.139513 0.0
1.299683 0.146018 0.0
1.285539 0.145804 0.0
1.264619 0.140144 0.0
1.238306 0.130415 0.0
1.207777 0.118135 0.0
1.173938 0.105020 0.0
1.137408 0.092969 0.0
1.098615 0.083785 0.0
1.058026 0.078566 0.0
1.016459 0.077057 0.0
0.975328 0.077385 0.0
0.936652 0.076546 0.0
0.902739 0.071511 0.0
0.875674 0.060333 0.0
0.856848 0.042683 0.0
0.846728 0.019681 0.0
0.844917 -0.006702 0.0
0.850375 -0.034135 0.0
0.861790 -0.060403 0.0
0.877927 -0.083839 0.0
0.897742 -0.103356 0.0
0.920391 -0.118316 0.0
0.945221 -0.128379 0.0
0.971723 -0.133377 0.0
0.999484 -0.133248 0.0
1.028093 -0.128031 0.0
1.057044 -0.117934 0.0
1.085620 -0.103447 0.0
1.112756 -0.085471 0.0
1.136934 -0.065408 0.0
1.155220 -0.044439 0.0
0.999995 -0.016797 0.0
0.999973 -0.050941 0.0
1.000085 -0.087948 0.0
1.000944 -0.130592 0.0
1.004126 -0.182533 0.0
1.013378 -0.248855 0.0
1.037408 -0.336739 0.0
1.095521 -0.451622 0.0
1.251830 -0.660748 0.0
1.363570 -0.396919 0.0
1.327643 -0.232429 0.0
1.270825 -0.149396 0.0
1.231321 -0.092800 0.0
1.207684 -0.043025 0.0
1.189464 0.007408 0.0
1.167383 0.055515 0.0
1.138462 0.096875 0.0
1.101920 0.128551 0.0
1.057930 0.148561 0.0
1.007124 0.155800 0.0
0.950294 0.150107 0.0
0.888481 0.132000 0.0
0.824203 0.101994 0.0
0.763531 0.060677 0.0
0.715520 0.008346 0.0
0.690029 -0.056133 0.0
0.695699 -0.118118 0.0
0.733947 -0.158154 0.0
0.799207 -0.163127 0.0
0.885083 -0.126845 0.0
0.982878 -0.053781 0.0
1.072168 0.031823 0.0
1.138059 0.104233 0.0
1.184101 0.160853 0.0
1.215498 0.205165 0.0
1.234670 0.239145 0.0
1.243081 0.263953 0.0
1.241853 0.280306 0.0
1.231991 0.288726 0.0
1.214451 0.289702 0.0
1.190174 0.283770 0.0
1.160082 0.271551 0.0
1.125023 0.253795 0.0
1.085504 0.231613 0.0
1.041112 0.207044 0.0
0.990036 0.183520 0.0
0.929984 0.164813 0.0
0.861333 0.151736 0.0
0.790252 0.139281 0.0
0.727613 0.118533 0.0
0.683347 0.082955 0.0
0.661407 0.032958 0.0
0.659071 -0.025443 0.0
0.670052 -0.083910 0.0
0.688863 -0.136218 0.0
0.712584 -0.179241 0.0
0.740086 -0.211592 0.0
0.771308 -0.232497 0.0
0.806796 -0.241205 0.0
0.847312 -0.236852 0.0
0.893427 -0.218707 0.0
0.945146 -0.186682 0.0
1.001684 -0.141879 0.0
1.061307 -0.087017 0.0
1.120508 -0.027231 0.0
1.172444 0.028660 0.0
1.212058 0.074638 0.0
1.239060 0.110061 0.0
1.254301 0.135365 0.0
1.258930 0.151396 0.0
1.254220 0.159280 0.0
1.241457 0.160351 0.0
1.221845 0.156132 0.0
1.196436 0.148355 0.0
1.166087 0.138987 0.0
1.131504 0.130115 0.0
1.093402 0.123535 0.0
1.052760 0.120047 0.0
1.011073 0.118831 0.0
0.970420 0.117394 0.0
0.933241 0.112391 0.0
0.901860 0.100960 0.0
0.877983 0.081826 0.0
0.862411 0.055588 0.0
0.855065 0.024242 0.0
0.855206 -0.009594 0.0
0.861684 -0.043178 0.0
0.873200 -0.074290 0.0
0.888533 -0.101422 0.0
0.906628 -0.123683 0.0
0.926634 -0.140645 0.0
0.947918 -0.152164 0.0
0.970052 -0.158229 0.0
0.992757 -0.158863 0.0
1.015821 -0.154090 0.0
1.038981 -0.143986 0.0
1.061792 -0.128781 0.0
1.083503 -0.108983 0.0
1.102953 -0.085524 0.0
1.118034 -0.057691 0.0
0.999371 -0.016163 0.0
0.996775 -0.048957 0.0
0.991349 -0.084618 0.0
0.982762 -0.126194 0.0
0.970791 -0.178142 0.0
0.956018 -0.247725 0.0
0.942203 -0.348082 0.0
0.945008 -0.501198 0.0
1.050134 -0.872608 0.0
1.058000 -0.196616 0.0
0.880203 -0.100094 0.0
0.748865 -0.082707 0.0
0.688853 -0.059974 0.0
0.667206 -0.030568 0.0
0.661464 0.018913 0.0
0.655049 0.072506 0.0
0.640565 0.123290 0.0
0.612654 0.166590 0.0
0.568239 0.198927 0.0
0.506686 0.217794 0.0
0.430555 0.221073 0.0
0.347788 0.205615 0.0
0.273215 0.167231 0.0
0.224520 0.104807 0.0
0.214609 0.022138 0.0
0.243245 -0.073069 0.0
0.297384 -0.160991 0.0
0.366091 -0.222235 0.0
0.447174 -0.245389 0.0
0.541492 -0.224775 0.0
0.649517 -0.161670 0.0
0.767614 -0.067675 0.0
0.877080 0.028373 0.0
0.961997 0.105755 0.0
1.025331 0.165532 0.0
1.072144 0.212793 0.0
1.104473 0.249565 0.0
1.123621 0.276774 0.0
1.130755 0.294987 0.0
1.127026 0.304710 0.0
1.113552 0.306515 0.0
1.091318 0.301133 0.0
1.060947 0.289643 0.0
1.022286 0.273945 0.0
0.974148 0.257242 0.0
0.915240 0.243307 0.0
0.846926 0.233393 0.0
0.775957 0.222777 0.0
0.713446 0.201832 0.0
0.669432 0.162635 0.0
0.647708 0.104842 0.0
0.645525 0.035194 0.0
0.656835 -0.036653 0.0
0.675648 -0.102493 0.0
0.697900 -0.158699 0.0
0.721459 -0.204039 0.0
0.745484 -0.238320 0.0
0.770088 -0.261594 0.0
0.796140 -0.273648 0.0
0.825001 -0.273785 0.0
0.858100 -0.260986 0.0
0.896438 -0.234461 0.0
0.940187 -0.194386 0.0
0.988520 -0.142467 0.0
1.039648 -0.082109 0.0
1.090215 -0.018966 0.0
1.134521 0.038344 0.0
1.168599 0.085275 0.0
1.192024 0.121484 0.0
1.205200 0.147471 0.0
1.208904 0.164212 0.0
1.204060 0.173027 0.0
1.191608 0.175520 0.0
1.172419 0.173565 0.0
1.147282 0.169263 0.0
1.116991 0.164714 0.0
1.082534 0.161496 0.0
1.045323 0.159939 0.0
1.007317 0.158632 0.0
0.970900 0.154662 0.0
0.938501 0.144702 0.0
0.912099 0.126433 0.0
0.892880 0.099450 0.0
0.881185 0.065230 0.0
0.876698 0.026433 0.0
0.878656 -0.013885 0.0
0.885996 -0.052704 0.0
0.897505 -0.087789 0.0
0.911988 -0.117739 0.0
0.928370 -0.141842 0.0
0.945767 -0.159889 0.0
0.963535 -0.171973 0.0
0.981285 -0.178303 0.0
0.998846 -0.179054 0.0
1.016183 -0.174300 0.0
1.033276 -0.164029 0.0
1.049972 -0.148247 0.0
1.065857 -0.127114 0.0
1.080170 -0.101157 0.0
1.091512 -0.068481 0.0
0.998773 -0.014306 0.0
0.993700 -0.043145 0.0
0.982891 -0.074195 0.0
0.964870 -0.110010 0.0
0.936913 -0.154398 0.0
0.894028 -0.213811 0.0
0.826437 -0.300589 0.0
0.715145 -0.440205 0.0
0.322730 -0.754360 0.0
-0.484621 0.268476 0.0
-0.484621 0.000000 0.0
-0.029612 -0.020298 0.0
-0.040093 -0.061203 0.0
0.017803 -0.065587 0.0
0.103295 -0.025817 0.0
0.169436 0.057511 0.0
0.190184 0.132022 0.0
0.178862 0.197092 0.0
0.142572 0.249129 0.0
0.089001 0.282717 0.0
0.029262 0.292019 0.0
-0.023046 0.269744 0.0
-0.055980 0.210609 0.0
-0.062206 0.116350 0.0
-0.039157 -0.002545 0.0
0.006820 -0.123000 0.0
0.065785 -0.224163 0.0
0.132447 -0.294430 0.0
0.206693 -0.328525 0.0
0.291890 -0.321154 0.0
0.390678 -0.272104 0.0
0.503355 -0.188014 0.0
0.625664 -0.083062 0.0
0.740301 0.017636 0.0
0.831738 0.098879 0.0
0.901523 0.162849 0.0
0.954203 0.214500 0.0
0.991496 0.255397 0.0
1.014542 0.286184 0.0
1.024400 0.307382 0.0
1.022052 0.319665 0.0
1.008216 0.324052 0.0
0.983068 0.322242 0.0
0.946094 0.316981 0.0
0.896814 0.311625 0.0
0.836929 0.307718 0.0
0.772712 0.301512 0.0
0.714639 0.283699 0.0
0.672909 0.245150 0.0
0.652286 0.183953 0.0
0.651021 0.106514 0.0
0.663828 0.022899 0.0
0.684713 -0.056552 0.0
0.708890 -0.125583 0.0
0.733469 -0.182440 0.0
0.756731 -0.227119 0.0
0.777823 -0.260357 0.0
0.796712 -0.283051 0.0
0.814214 -0.295746 0.0
0.831920 -0.298255 0.0
0.851895 -0.289590 0.0
0.876109 -0.268409 0.0
0.905810 -0.233888 0.0
0.941118 -0.186606 0.0
0.981006 -0.128984 0.0
1.023503 -0.065155 0.0
1.065055 -0.001325 0.0
1.101068 0.054853 0.0
1.128813 0.100736 0.0
1.147732 0.136124 0.0
1.157939 0.161648 0.0
1.159885 0.178488 0.0
1.154166 0.188231 0.0
1.141424 0.192786 0.0
1.122357 0.194247 0.0
1.097823 0.194555 0.0
1.069028 0.194907 0.0
1.037671 0.195095 0.0
1.005925 0.193229 0.0
0.976155 0.186251 0.0
0.950483 0.171183 0.0
0.930393 0.146443 0.0
0.916603 0.112450 0.0
0.909182 0.071346 0.0
0.907778 0.026209 0.0
0.911732 -0.019574 0.0
0.920090 -0.062712 0.0
0.931705 -0.100905 0.0
0.945409 -0.132811 0.0
0.960126 -0.157869 0.0
0.974959 -0.176092 0.0
0.989264 -0.187843 0.0
1.002682 -0.193601 0.0
1.015132 -0.193767 0.0
1.026744 -0.188537 0.0
1.037738 -0.177879 0.0
1.048273 -0.161627 0.0
1.058298 -0.139644 0.0
1.067464 -0.112106 0.0
1.074938 -0.076347 0.0
0.998328 -0.011407 0.0
0.991436 -0.034080 0.0
0.976733 -0.057749 0.0
0.952063 -0.083764 0.0
0.913254 -0.113878 0.0
0.852264 -0.150457 0.0
0.752263 -0.196350 0.0
0.573039 -0.253928 0.0
0.228224 -0.305904 0.0
0.000000 0.268476 0.0
-0.000000 -0.000000 0.0
0.000000 0.000000 0.0
-0.039267 -0.040167 0.0
-0.081833 -0.101053 0.0
-0.085050 -0.072626 0.0
-0.078129 0.031257 0.0
-0.073460 0.132857 0.0
-0.085854 0.219973 0.0
-0.111465 0.288148 0.0
-0.143670 0.329474 0.0
-0.173950 0.335280 0.0
-0.193163 0.298005 0.0
-0.193589 0.215710 0.0
-0.169936 0.093823 0.0
-0.124989 -0.048013 0.0
-0.071399 -0.177099 0.0
-0.017193 -0.283236 0.0
0.037156 -0.356368 0.0
0.093502 -0.397179 0.0
0.157399 -0.401594 0.0
0.234519 -0.367573 0.0
0.327447 -0.298151 0.0
0.434340 -0.202126 0.0
0.549119 -0.092716 0.0
0.656739 0.010173 0.0
0.743946 0.094563 0.0
0.811172 0.162879 0.0
0.861876 0.219020 0.0
0.897328 0.264064 0.0
0.918339 0.298634 0.0
0.925508 0.323593 0.0
0.919107 0.340360 0.0
0.899036 0.351153 0.0
0.865352 0.358730 0.0
0.819805 0.364702 0.0
0.767807 0.366524 0.0
0.718642 0.356088 0.0
0.682259 0.323579 0.0
0.664520 0.264739 0.0
0.665236 0.184271 0.0
0.680244 0.092453 0.0
0.704316 0.000081 0.0
0.732391 -0.082694 0.0
0.760718 -0.151944 0.0
0.787121 -0.207061 0.0
0.810162 -0.248802 0.0
0.828988 -0.278593 0.0
0.843370 -0.298087 0.0
0.853845 -0.308685 0.0
0.861846 -0.311023 0.0
0.869647 -0.304598 0.0
0.879936 -0.287905 0.0
0.895073 -0.259229 0.0
0.916344 -0.217844 0.0
0.943629 -0.164919 0.0
0.975563 -0.103652 0.0
1.009911 -0.038727 0.0
1.043012 0.023142 0.0
1.071261 0.076453 0.0
1.092926 0.119823 0.0
1.107374 0.153295 0.0
1.114517 0.177752 0.0
1.114562 0.194641 0.0
1.107900 0.205779 0.0
1.095121 0.213101 0.0
1.077117 0.218237 0.0
1.055228 0.221908 0.0
1.031278 0.223400 0.0
1.007416 0.220534 0.0
0.985748 0.210384 0.0
0.967933 0.190537 0.0
0.954952 0.160159 0.0
0.947154 0.120321 0.0
0.944476 0.073575 0.0
0.946602 0.023258 0.0
0.952939 -0.026913 0.0
0.962563 -0.073354 0.0
0.974370 -0.113685 0.0
0.987244 -0.146609 0.0
1.000163 -0.171706 0.0
1.012284 -0.189209 0.0
1.023007 -0.199754 0.0
1.032029 -0.204128 0.0
1.039353 -0.203014 0.0
1.045259 -0.196807 0.0
1.050191 -0.185536 0.0
1.054613 -0.168928 0.0
1.058842 -0.146598 0.0
1.062935 -0.118411 0.0
1.066539 -0.081120 0.0
0.998124 -0.007859 0.0
0.990430 -0.023042 0.0
0.974162 -0.037816 0.0
0.947275 -0.052138 0.0
0.906075 -0.065495 0.0
0.844481 -0.076257 0.0
0.753121 -0.079188 0.0
0.620806 -0.059550 0.0
0.448095 0.022793 0.0
0.176586 0.158262 0.0
0.000000 0.000000 0.0
-0.000000 -0.000000 0.0
0.000000 0.000000 0.0
-0.047421 -0.048877 0.0
-0.107399 -0.060151 0.0
-0.133970 0.038432 0.0
-0.156948 0.143991 0.0
-0.173265 0.237551 0.0
-0.187531 0.310447 0.0
-0.199726 0.351576 0.0
-0.205400 0.349132 0.0
-0.197599 0.295564 0.0
-0.169701 0.190679 0.0
-0.117369 0.042868 0.0
-0.053083 -0.106292 0.0
0.004443 -0.229936 0.0
0.049483 -0.329644 0.0
0.084451 -0.399276 0.0
0.114938 -0.441103 0.0
0.147026 -0.453656 0.0
0.188835 -0.434440 0.0
0.247315 -0.382692 0.0
0.324636 -0.301800 0.0
0.417048 -0.200234 0.0
0.516685 -0.089565 0.0
0.609927 0.013852 0.0
0.686094 0.100197 0.0
0.745008 0.172084 0.0
0.788562 0.231994 0.0
0.817360 0.280896 0.0
0.831607 0.319915 0.0
0.831329 0.350717 0.0
0.816814 0.375381 0.0
0.789684 0.395317 0.0
0.754353 0.408992 0.0
0.718556 0.410029 0.0
0.691367 0.388938 0.0
0.679288 0.339192 0.0
0.683709 0.262443 0.0
0.701913 0.167649 0.0
0.729827 0.066153 0.0
0.762739 -0.030605 0.0
0.796189 -0.113534 0.0
0.827365 -0.180608 0.0
0.854573 -0.232009 0.0
0.876703 -0.269027 0.0
0.893086 -0.293577 0.0
0.903471 -0.307871 0.0
0.908144 -0.314048 0.0
0.908146 -0.313663 0.0
0.905482 -0.307094 0.0
0.903025 -0.293242 0.0
0.903940 -0.269944 0.0
0.910749 -0.235209 0.0
0.924540 -0.188630 0.0
0.944785 -0.132120 0.0
0.969742 -0.069564 0.0
0.996779 -0.006159 0.0
1.022542 0.051742 0.0
1.044344 0.101067 0.0
1.060884 0.141063 0.0
1.071561 0.172163 0.0