# vtk DataFile Version 3.0
Vector Field
ASCII
DATASET RECTILINEAR_GRID
DIMENSIONS 100 26 1
X_COORDINATES 100 double
0.050000 0.150000 0.250000 0.350000 0.450000 0.550000 0.650000 0.750000 0.850000 0.950000 1.050000 1.150000 1.250000 1.350000 1.450000 1.550000 1.650000 1.750000 1.850000 1.950000 2.050000 2.150000 2.250000 2.350000 2.450000 2.550000 2.650000 2.750000 2.850000 2.950000 3.050000 3.150000 3.250000 3.350000 3.450000 3.550000 3.650000 3.750000 3.850000 3.950000 4.050000 4.150000 4.250000 4.350000 4.450000 4.550000 4.650000 4.750000 4.850000 4.950000 5.050000 5.150000 5.250000 5.350000 5.450000 5.550000 5.650000 5.750000 5.850000 5.950000 6.050000 6.150000 6.250000 6.350000 6.450000 6.550000 6.650000 6.750000 6.850000 6.950000 7.050000 7.150000 7.250000 7.350000 7.450000 7.550000 7.650000 7.750000 7.850000 7.950000 8.050000 8.150000 8.250000 8.350000 8.450000 8.550000 8.650000 8.750000 8.850000 8.950000 9.050000 9.150000 9.250000 9.350000 9.450000 9.550000 9.650000 9.750000 9.850000 9.950000 
Y_COORDINATES 26 double
0.050000 0.150000 0.250000 0.350000 0.450000 0.550000 0.650000 0.750000 0.850000 0.950000 1.050000 1.150000 1.250000 1.350000 1.450000 1.550000 1.650000 1.750000 1.850000 1.950000 2.050000 2.150000 2.250000 2.350000 2.450000 2.550000 
Z_COORDINATES 1 double
0.0
POINT_DATA 2600
VECTORS Vektorfeld double
0.997711 0.002289 0.0
0.993078 0.002344 0.0
0.989854 0.000879 0.0
0.990181 -0.001205 0.0
0.994883 -0.003497 0.0
1.004110 -0.005729 0.0
1.017486 -0.007647 0.0
1.034129 -0.008996 0.0
1.052686 -0.009561 0.0
1.071469 -0.009222 0.0
1.088718 -0.008028 0.0
1.102921 -0.006174 0.0
1.113032 -0.003937 0.0
1.118575 -0.001606 0.0
1.119652 0.000528 0.0
1.116798 0.002327 0.0
1.110734 0.003737 0.0
1.102268 0.004729 0.0
1.092230 0.005309 0.0
1.081391 0.005531 0.0
1.070355 0.005504 0.0
1.059456 0.005395 0.0
1.048650 0.005412 0.0
1.037458 0.005780 0.0
1.024989 0.006689 0.0
1.010061 0.008238 0.0
0.991414 0.010409 0.0
0.967934 0.013070 0.0
0.938849 0.016015 0.0
0.903833 0.019002 0.0
0.863040 0.021791 0.0
0.817084 0.024165 0.0
0.766976 0.025943 0.0
0.714057 0.026976 0.0
0.659932 0.027150 0.0
0.606398 0.026385 0.0
0.555372 0.024641 0.0
0.508809 0.021922 0.0
0.468668 0.018219 0.0
0.437132 0.013318 0.0
0.416986 0.006828 0.0
0.410686 -0.000528 0.0
0.416864 -0.005649 0.0
0.430881 -0.008368 0.0
0.448676 -0.009427 0.0
0.467549 -0.009446 0.0
0.485802 -0.008808 0.0
0.502320 -0.007710 0.0
0.516290 -0.006260 0.0
0.527118 -0.004567 0.0
0.534475 -0.002790 0.0
0.538332 -0.001067 0.0
0.538436 0.000963 0.0
0.533653 0.003820 0.0
0.522618 0.007215 0.0
0.504614 0.010790 0.0
0.479799 0.014025 0.0
0.449621 0.016154 0.0
0.417135 0.016332 0.0
0.386605 0.014199 0.0
0.361981 0.010425 0.0
0.345090 0.006465 0.0
0.335088 0.003538 0.0
0.329675 0.001875 0.0
0.326865 0.000936 0.0
0.325761 0.000167 0.0
0.326128 -0.000534 0.0
0.327830 -0.001167 0.0
0.330562 -0.001565 0.0
0.333812 -0.001685 0.0
0.337104 -0.001607 0.0
0.340066 -0.001355 0.0
0.342375 -0.000954 0.0
0.343746 -0.000417 0.0
0.343789 0.000374 0.0
0.341940 0.001476 0.0
0.337861 0.002603 0.0
0.331789 0.003470 0.0
0.324414 0.003905 0.0
0.316700 0.003808 0.0
0.309724 0.003168 0.0
0.304542 0.002014 0.0
0.302021 0.000507 0.0
0.302212 -0.000699 0.0
0.304170 -0.001259 0.0
0.306853 -0.001424 0.0
0.309681 -0.001405 0.0
0.312416 -0.001330 0.0
0.315036 -0.001290 0.0
0.317644 -0.001317 0.0
0.320339 -0.001378 0.0
0.323125 -0.001408 0.0
0.325935 -0.001402 0.0
0.328793 -0.001456 0.0
0.331762 -0.001513 0.0
0.334749 -0.001475 0.0
0.337522 -0.001298 0.0
0.339818 -0.000997 0.0
0.341431 -0.000616 0.0
0.341969 0.000078 0.0
1.003006 0.001572 0.0
1.011671 -0.000969 0.0
1.025068 -0.005982 0.0
1.042544 -0.012147 0.0
1.063991 -0.018705 0.0
1.089263 -0.025021 0.0
1.117952 -0.030419 0.0
1.149257 -0.034172 0.0
1.181939 -0.035624 0.0
1.214387 -0.034390 0.0
1.244901 -0.030623 0.0
1.272064 -0.024944 0.0
1.294974 -0.018188 0.0
1.313259 -0.011182 0.0
1.326925 -0.004640 0.0
1.336303 0.000971 0.0
1.342075 0.005385 0.0
1.345133 0.008490 0.0
1.346418 0.010301 0.0
1.346808 0.010989 0.0
1.346999 0.010890 0.0
1.347394 0.010513 0.0
1.347984 0.010509 0.0
1.348276 0.011583 0.0
1.347291 0.014340 0.0
1.343703 0.019103 0.0
1.336088 0.025807 0.0
1.323199 0.034039 0.0
1.304180 0.043151 0.0
1.278661 0.052400 0.0
1.246787 0.061058 0.0
1.209166 0.068475 0.0
1.166801 0.074106 0.0
1.121018 0.077513 0.0
1.073397 0.078358 0.0
1.025708 0.076400 0.0
0.979853 0.071506 0.0
0.937819 0.063654 0.0
0.901583 0.052863 0.0
0.872697 0.039097 0.0
0.851199 0.022693 0.0
0.835398 0.005707 0.0
0.825358 -0.008022 0.0
0.822491 -0.017145 0.0
0.826623 -0.022578 0.0
0.836892 -0.025437 0.0
0.852342 -0.026521 0.0
0.872067 -0.026239 0.0
0.895056 -0.024691 0.0
0.919904 -0.021813 0.0
0.944499 -0.017496 0.0
0.965893 -0.011612 0.0
0.981218 -0.003923 0.0
0.989196 0.005512 0.0
0.989559 0.016194 0.0
0.982224 0.027150 0.0
0.967714 0.036988 0.0
0.947071 0.044012 0.0
0.921387 0.046644 0.0
0.891398 0.044406 0.0
0.857619 0.038622 0.0
0.821048 0.031729 0.0
0.783807 0.025517 0.0
0.749046 0.020068 0.0
0.720193 0.014407 0.0
0.700002 0.007991 0.0
0.689739 0.001537 0.0
0.688305 -0.003505 0.0
0.692876 -0.006530 0.0
0.701034 -0.008128 0.0
0.711396 -0.008819 0.0
0.722889 -0.008598 0.0
0.734333 -0.007464 0.0
0.744500 -0.005444 0.0
0.752492 -0.002636 0.0
0.758244 0.000583 0.0
0.762162 0.003656 0.0
0.764536 0.006115 0.0
0.765641 0.007530 0.0
0.765889 0.007649 0.0
0.765704 0.006488 0.0
0.765265 0.004315 0.0
0.764268 0.001725 0.0
0.762476 -0.000317 0.0
0.760299 -0.001422 0.0
0.758167 -0.001812 0.0
0.756094 -0.001771 0.0
0.753907 -0.001512 0.0
0.751377 -0.001198 0.0
0.748334 -0.000973 0.0
0.744850 -0.000934 0.0
0.741387 -0.001175 0.0
0.738775 -0.001833 0.0
0.737676 -0.002785 0.0
0.738185 -0.003661 0.0
0.740018 -0.004147 0.0
0.742758 -0.004140 0.0
0.745995 -0.003688 0.0
0.749264 -0.002808 0.0
0.750822 0.000175 0.0
1.001918 -0.003353 0.0
1.008762 -0.011553 0.0
1.021188 -0.021221 0.0
1.038640 -0.031834 0.0
1.060959 -0.042783 0.0
1.088032 -0.053289 0.0
1.119519 -0.062327 0.0
1.154601 -0.068652 0.0
1.191802 -0.071026 0.0
1.228947 -0.068581 0.0
1.263636 -0.061636 0.0
1.294004 -0.051463 0.0
1.319055 -0.039629 0.0
1.338575 -0.027546 0.0
1.352926 -0.016293 0.0
1.362824 -0.006652 0.0
1.369171 0.000889 0.0
1.372980 0.006118 0.0
1.375311 0.009057 0.0
1.377186 0.009968 0.0
1.379519 0.009386 0.0
1.383004 0.008139 0.0
1.387949 0.007347 0.0
1.394106 0.008295 0.0
1.400572 0.012147 0.0
1.405907 0.019551 0.0
1.408466 0.030416 0.0
1.406784 0.044002 0.0
1.399816 0.059176 0.0
1.387039 0.074671 0.0
1.368427 0.089275 0.0
1.344368 0.101939 0.0
1.315577 0.111799 0.0
1.283008 0.118173 0.0
1.247792 0.120536 0.0
1.211183 0.118521 0.0
1.174494 0.111928 0.0
1.139013 0.100748 0.0
1.105814 0.085204 0.0
1.075496 0.065961 0.0
1.048150 0.044671 0.0
1.023786 0.023894 0.0
1.002446 0.005171 0.0
0.985228 -0.010252 0.0
0.973744 -0.022121 0.0
0.968681 -0.031100 0.0
0.970258 -0.037885 0.0
0.978432 -0.042773 0.0
0.992882 -0.045595 0.0
1.012959 -0.045834 0.0
1.037673 -0.042785 0.0
1.065693 -0.035736 0.0
1.095063 -0.024494 0.0
1.122889 -0.009720 0.0
1.146390 0.007562 0.0
1.163919 0.025588 0.0
1.174593 0.042386 0.0
1.177816 0.056035 0.0
1.173080 0.065041 0.0
1.160085 0.068992 0.0
1.139156 0.068745 0.0
1.111664 0.065670 0.0
1.079920 0.060560 0.0
1.046431 0.053274 0.0
1.012971 0.043513 0.0
0.980203 0.031844 0.0
0.948375 0.019774 0.0
0.919176 0.008892 0.0
0.896040 -0.000363 0.0
0.881429 -0.007842 0.0
0.874890 -0.012928 0.0
0.874489 -0.015580 0.0
0.878643 -0.016082 0.0
0.886233 -0.014583 0.0
0.896207 -0.011463 0.0
0.907312 -0.007446 0.0
0.918315 -0.003235 0.0
0.928472 0.000475 0.0
0.937525 0.003011 0.0
0.945484 0.003961 0.0
0.952539 0.003307 0.0
0.958993 0.001480 0.0
0.965284 -0.000733 0.0
0.971921 -0.002704 0.0
0.979252 -0.004188 0.0
0.987371 -0.005034 0.0
0.996128 -0.005233 0.0
1.005121 -0.004856 0.0
1.013835 -0.004038 0.0
1.021735 -0.002990 0.0
1.028253 -0.001952 0.0
1.032728 -0.001168 0.0
1.034285 -0.000785 0.0
1.032123 -0.000572 0.0
1.026033 -0.000293 0.0
1.016627 0.000059 0.0
1.005248 0.000292 0.0
0.993728 0.000163 0.0
0.984176 -0.000377 0.0
0.978384 0.001978 0.0
1.001541 -0.006812 0.0
1.007497 -0.020894 0.0
1.019068 -0.035878 0.0
1.036149 -0.051710 0.0
1.058895 -0.067973 0.0
1.087537 -0.083815 0.0
1.122083 -0.097834 0.0
1.161890 -0.108035 0.0
1.205262 -0.112216 0.0
1.248927 -0.108200 0.0
1.288972 -0.096751 0.0
1.322732 -0.080476 0.0
1.349200 -0.062135 0.0
1.368548 -0.043909 0.0
1.381587 -0.027322 0.0
1.389441 -0.013376 0.0
1.393369 -0.002661 0.0
1.394676 0.004552 0.0
1.394687 0.008281 0.0
1.394718 0.008838 0.0
1.396018 0.006882 0.0
1.399665 0.003512 0.0
1.406297 0.000397 0.0
1.415749 -0.000364 0.0
1.426847 0.003242 0.0
1.437580 0.012388 0.0
1.445682 0.026918 0.0
1.449290 0.045573 0.0
1.447301 0.066561 0.0
1.439366 0.087998 0.0
1.425725 0.108202 0.0
1.406982 0.125813 0.0
1.383917 0.139781 0.0
1.357362 0.149315 0.0
1.328141 0.153831 0.0
1.297042 0.152935 0.0
1.264800 0.146445 0.0
1.232057 0.134455 0.0
1.199306 0.117446 0.0
1.166882 0.096462 0.0
1.135137 0.073261 0.0
1.104790 0.050016 0.0
1.076905 0.028273 0.0
1.052368 0.008402 0.0
1.032311 -0.009235 0.0
1.018051 -0.024662 0.0
1.010322 -0.038171 0.0
1.009426 -0.049764 0.0
1.015356 -0.058983 0.0
1.027907 -0.065075 0.0
1.046862 -0.067212 0.0
1.072091 -0.064557 0.0
1.103387 -0.056339 0.0
1.139888 -0.042203 0.0
1.179204 -0.022772 0.0
1.217218 0.000378 0.0
1.249606 0.024533 0.0
1.273803 0.046468 0.0
1.288713 0.064433 0.0
1.293752 0.077556 0.0
1.289047 0.085815 0.0
1.275564 0.089576 0.0
1.254874 0.089087 0.0
1.228676 0.084435 0.0
1.198472 0.076016 0.0
1.165716 0.064866 0.0
1.132079 0.052217 0.0
1.099042 0.038686 0.0
1.067235 0.024786 0.0
1.037160 0.011696 0.0
1.010674 0.000559 0.0
0.990164 -0.008155 0.0
0.976448 -0.013944 0.0
0.968775 -0.016638 0.0
0.965933 -0.016539 0.0
0.966684 -0.014226 0.0
0.969785 -0.010559 0.0
0.974039 -0.006613 0.0
0.978476 -0.003391 0.0
0.982533 -0.001653 0.0
0.986169 -0.001769 0.0
0.989900 -0.003629 0.0
0.994696 -0.006710 0.0
1.001745 -0.010413 0.0
1.012122 -0.014187 0.0
1.026488 -0.017520 0.0
1.044930 -0.019947 0.0
1.066931 -0.021137 0.0
1.091397 -0.020938 0.0
1.116759 -0.019351 0.0
1.141146 -0.016495 0.0
1.162640 -0.012593 0.0
1.179646 -0.007923 0.0
1.191283 -0.002908 0.0
1.197498 0.001917 0.0
1.198768 0.005985 0.0
1.195811 0.008702 0.0
1.189524 0.009562 0.0
1.180924 0.008376 0.0
1.173843 0.006098 0.0
1.001353 -0.009705 0.0
1.006730 -0.029333 0.0
1.017527 -0.049807 0.0
1.034073 -0.071408 0.0
1.057024 -0.093973 0.0
1.087257 -0.116690 0.0
1.125549 -0.137795 0.0
1.171877 -0.154209 0.0
1.224745 -0.162282 0.0
1.278626 -0.155679 0.0
1.326189 -0.136880 0.0
1.363685 -0.111602 0.0
1.390726 -0.084519 0.0
1.408477 -0.058624 0.0
1.418560 -0.035729 0.0
1.422660 -0.016922 0.0
1.422421 -0.002803 0.0
1.419438 0.006370 0.0
1.415290 0.010600 0.0
1.411591 0.010187 0.0
1.410002 0.005821 0.0
1.412170 -0.001242 0.0
1.419419 -0.008729 0.0
1.432046 -0.013317 0.0
1.448591 -0.011447 0.0
1.465802 -0.000867 0.0
1.479842 0.018032 0.0
1.487878 0.042813 0.0
1.488612 0.070577 0.0
1.481972 0.098557 0.0
1.468712 0.124543 0.0
1.449963 0.146963 0.0
1.426894 0.164765 0.0
1.400527 0.177252 0.0
1.371680 0.183963 0.0
1.340960 0.184621 0.0
1.308808 0.179152 0.0
1.275541 0.167759 0.0
1.241409 0.151025 0.0
1.206702 0.130013 0.0
1.171920 0.106235 0.0
1.137935 0.081374 0.0
1.105945 0.056791 0.0
1.077163 0.033204 0.0
1.052431 0.010751 0.0
1.032373 -0.010329 0.0
1.017402 -0.029805 0.0
1.007547 -0.047378 0.0
1.002791 -0.062542 0.0
1.003410 -0.074687 0.0
1.010208 -0.083353 0.0
1.024552 -0.087989 0.0
1.047946 -0.087597 0.0
1.081330 -0.080828 0.0
1.124390 -0.066523 0.0
1.174956 -0.044451 0.0
1.228121 -0.016190 0.0
1.276307 0.014808 0.0
1.313593 0.043896 0.0
1.338493 0.068154 0.0
1.351485 0.086930 0.0
1.353492 0.099937 0.0
1.345807 0.107101 0.0
1.329860 0.108566 0.0
1.307111 0.104838 0.0
1.279093 0.096818 0.0
1.247431 0.085563 0.0
1.213715 0.072093 0.0
1.179434 0.057466 0.0
1.145949 0.042576 0.0
1.114150 0.027964 0.0
1.084515 0.014584 0.0
1.057928 0.003621 0.0
1.035568 -0.004171 0.0
1.017848 -0.008444 0.0
1.004075 -0.009299 0.0
0.992945 -0.007458 0.0
0.983130 -0.004153 0.0
0.973714 -0.000872 0.0
0.964502 0.000984 0.0
0.956022 0.000437 0.0
0.949373 -0.002917 0.0
0.946056 -0.008902 0.0
0.947609 -0.016823 0.0
0.955149 -0.025693 0.0
0.969159 -0.034389 0.0
0.989503 -0.041864 0.0
1.015569 -0.047286 0.0
1.046399 -0.050087 0.0
1.080778 -0.049943 0.0
1.117245 -0.046758 0.0
1.154097 -0.040676 0.0
1.189386 -0.032136 0.0
1.221001 -0.021948 0.0
1.246957 -0.011214 0.0
1.265992 -0.001189 0.0
1.277981 0.006844 0.0
1.283783 0.011904 0.0
1.284863 0.013554 0.0
1.284004 0.008861 0.0
1.001164 -0.012222 0.0
1.005851 -0.036880 0.0
1.015481 -0.062689 0.0
1.030768 -0.090359 0.0
1.052983 -0.120187 0.0
1.083976 -0.151702 0.0
1.125949 -0.183049 0.0
1.180462 -0.209796 0.0
1.248003 -0.227104 0.0
1.317600 -0.214334 0.0
1.373788 -0.181977 0.0
1.412795 -0.143007 0.0
1.437067 -0.104426 0.0
1.449954 -0.069356 0.0
1.454214 -0.039340 0.0
1.452065 -0.015262 0.0
1.445347 0.002494 0.0
1.435693 0.013710 0.0
1.424817 0.018284 0.0
1.414589 0.016430 0.0
1.406968 0.008789 0.0
1.404130 -0.003541 0.0
1.408581 -0.018130 0.0
1.422037 -0.029999 0.0
1.443722 -0.032995 0.0
1.469643 -0.022451 0.0
1.493218 0.002001 0.0
1.508729 0.035297 0.0
1.514036 0.072053 0.0
1.509546 0.108211 0.0
1.496749 0.140945 0.0
1.477460 0.168600 0.0
1.453336 0.190322 0.0
1.425688 0.205710 0.0
1.395452 0.214590 0.0
1.363246 0.216920 0.0
1.329453 0.212796 0.0
1.294319 0.202515 0.0
1.258063 0.186658 0.0
1.221011 0.166141 0.0
1.183739 0.142162 0.0
1.147151 0.116021 0.0
1.112389 0.088895 0.0
1.080528 0.061743 0.0
1.052110 0.035362 0.0
1.026776 0.010452 0.0
1.003511 -0.012350 0.0
0.981474 -0.032940 0.0
0.960893 -0.051644 0.0
0.943434 -0.068745 0.0
0.932031 -0.084690 0.0
0.930242 -0.099207 0.0
0.941037 -0.110570 0.0
0.965890 -0.116092 0.0
1.004677 -0.113106 0.0
1.055964 -0.099721 0.0
1.117146 -0.075267 0.0
1.183891 -0.041045 0.0
1.248015 -0.001661 0.0
1.300099 0.036727 0.0
1.336540 0.068925 0.0
1.358532 0.093943 0.0
1.367732 0.111581 0.0
1.365787 0.121978 0.0
1.354332 0.125630 0.0
1.335018 0.123358 0.0
1.309518 0.116184 0.0
1.279489 0.105217 0.0
1.246524 0.091588 0.0
1.212095 0.076367 0.0
1.177488 0.060578 0.0
1.143796 0.045298 0.0
1.111770 0.031520 0.0
1.081657 0.020402 0.0
1.053288 0.013072 0.0
1.026248 0.010000 0.0
1.000021 0.010600 0.0
0.974339 0.013286 0.0
0.949580 0.015864 0.0
0.926843 0.016198 0.0
0.907723 0.012821 0.0
0.893883 0.005189 0.0
0.886624 -0.006432 0.0
0.886768 -0.020992 0.0
0.894525 -0.036821 0.0
0.909448 -0.052193 0.0
0.930725 -0.065681 0.0
0.957436 -0.076246 0.0
0.988675 -0.083196 0.0
1.023563 -0.086100 0.0
1.061218 -0.084724 0.0
1.100693 -0.079036 0.0
1.140899 -0.069272 0.0
1.180526 -0.056054 0.0
1.217971 -0.040509 0.0
1.251348 -0.024306 0.0
1.278732 -0.009411 0.0
1.298820 0.002269 0.0
1.311684 0.009245 0.0
1.318553 0.007159 0.0
1.000892 -0.014278 0.0
1.004510 -0.043129 0.0
1.012115 -0.073674 0.0
1.024695 -0.107240 0.0
1.044114 -0.144938 0.0
1.073425 -0.187255 0.0
1.117110 -0.233155 0.0
1.180175 -0.277268 0.0
1.270434 -0.317433 0.0
1.362121 -0.285288 0.0
1.421713 -0.226804 0.0
1.452999 -0.168474 0.0
1.466526 -0.116759 0.0
1.468916 -0.072301 0.0
1.463567 -0.035306 0.0
1.452438 -0.006018 0.0
1.436670 0.015737 0.0
1.417451 0.029339 0.0
1.396611 0.034371 0.0
1.376256 0.030925 0.0
1.358513 0.019659 0.0
1.345379 0.001560 0.0
1.340004 -0.022307 0.0
1.346579 -0.045853 0.0
1.367072 -0.059319 0.0
1.399299 -0.054276 0.0
1.436293 -0.026745 0.0
1.466845 0.017981 0.0
1.483827 0.067079 0.0
1.487672 0.113830 0.0
1.480963 0.154831 0.0
1.466313 0.188653 0.0
1.445788 0.214917 0.0
1.420853 0.233696 0.0
1.392493 0.245199 0.0
1.361353 0.249657 0.0
1.327864 0.247341 0.0
1.292353 0.238616 0.0
1.255148 0.224018 0.0
1.216696 0.204284 0.0
1.177668 0.180319 0.0
1.138993 0.153126 0.0
1.101726 0.123819 0.0
1.066620 0.093787 0.0
1.033504 0.064852 0.0
1.000890 0.038908 0.0
0.966405 0.016943 0.0
0.928245 -0.002035 0.0
0.887419 -0.021142 0.0
0.849434 -0.043804 0.0
0.821985 -0.070780 0.0
0.810485 -0.099828 0.0
0.816409 -0.126667 0.0
0.838498 -0.146937 0.0
0.874675 -0.157226 0.0
0.923012 -0.155224 0.0
0.981739 -0.139673 0.0
1.048825 -0.110470 0.0
1.121440 -0.068976 0.0
1.193641 -0.020243 0.0
1.255403 0.027692 0.0
1.300618 0.067969 0.0
1.329946 0.099027 0.0
1.345321 0.121101 0.0
1.348568 0.134716 0.0
1.341468 0.140687 0.0
1.325777 0.140047 0.0
1.303205 0.133956 0.0
1.275384 0.123635 0.0
1.243821 0.110311 0.0
1.209840 0.095222 0.0
1.174501 0.079686 0.0
1.138499 0.065160 0.0
1.102126 0.053248 0.0
1.065387 0.045334 0.0
1.028241 0.041924 0.0
0.990974 0.042170 0.0
0.954529 0.043843 0.0
0.920567 0.044028 0.0
0.891204 0.040134 0.0
0.868497 0.030712 0.0
0.853931 0.015705 0.0
0.848097 -0.003855 0.0
0.850648 -0.026264 0.0
0.860618 -0.049277 0.0
0.876856 -0.070898 0.0
0.898277 -0.089674 0.0
0.923964 -0.104650 0.0
0.953169 -0.115235 0.0
0.985280 -0.121061 0.0
1.019768 -0.121907 0.0
1.056121 -0.117681 0.0
1.093770 -0.108481 0.0
1.132003 -0.094703 0.0
1.169879 -0.077181 0.0
1.206154 -0.057285 0.0
1.239267 -0.036928 0.0
1.267445 -0.018481 0.0
1.288982 -0.004405 0.0
1.302301 0.000621 0.0
1.000491 -0.015660 0.0
1.002493 -0.047368 0.0
1.006842 -0.081388 0.0
1.014547 -0.119812 0.0
1.027724 -0.164961 0.0
1.050408 -0.219226 0.0
1.089878 -0.284340 0.0
1.157467 -0.356737 0.0
1.280139 -0.450895 0.0
1.394169 -0.357543 0.0
1.433818 -0.253790 0.0
1.436159 -0.175115 0.0
1.426482 -0.113967 0.0
1.412417 -0.063418 0.0
1.395259 -0.021682 0.0
1.373610 0.013136 0.0
1.346367 0.039595 0.0
1.314769 0.056298 0.0
1.280569 0.062452 0.0
1.245842 0.057925 0.0
1.212958 0.043288 0.0
1.184225 0.019798 0.0
1.161179 -0.012124 0.0
1.148710 -0.050142 0.0
1.154403 -0.081217 0.0
1.182016 -0.092218 0.0
1.229322 -0.073102 0.0
1.285388 -0.022280 0.0
1.331852 0.043893 0.0
1.360175 0.104849 0.0
1.374214 0.156482 0.0
1.377601 0.198267 0.0
1.372710 0.230720 0.0
1.361008 0.254529 0.0
1.343460 0.270274 0.0
1.320783 0.278401 0.0
1.293580 0.279290 0.0
1.262418 0.273339 0.0
1.227886 0.261030 0.0
1.190659 0.242951 0.0
1.151549 0.219791 0.0
1.111470 0.192407 0.0
1.071129 0.162146 0.0
1.030264 0.131432 0.0
0.986785 0.103803 0.0
0.937264 0.082091 0.0
0.880118 0.065392 0.0
0.819553 0.048242 0.0
0.765165 0.023795 0.0
0.726175 -0.011765 0.0
0.707073 -0.056268 0.0
0.706915 -0.102682 0.0
0.721584 -0.144406 0.0
0.747406 -0.177109 0.0
0.782339 -0.198165 0.0
0.825571 -0.205855 0.0
0.876797 -0.198996 0.0
0.935600 -0.177036 0.0
1.000996 -0.140421 0.0
1.071095 -0.091097 0.0
1.141817 -0.033938 0.0
1.204453 0.021747 0.0
1.252055 0.068319 0.0
1.284314 0.104176 0.0
1.302838 0.129870 0.0
1.309264 0.146206 0.0
1.305252 0.154230 0.0
1.292444 0.155154 0.0
1.272412 0.150290 0.0
1.246612 0.141018 0.0
1.216309 0.128798 0.0
1.182509 0.115250 0.0
1.145902 0.102204 0.0
1.106921 0.091558 0.0
1.065932 0.084752 0.0
1.023574 0.082010 0.0
0.981082 0.081842 0.0
0.940412 0.081286 0.0
0.904006 0.076953 0.0
0.874249 0.066329 0.0
0.852881 0.048591 0.0
0.840661 0.024611 0.0
0.837361 -0.003626 0.0
0.841966 -0.033648 0.0
0.853088 -0.062985 0.0
0.869390 -0.089729 0.0
0.889749 -0.112623 0.0
0.913281 -0.130921 0.0
0.939328 -0.144216 0.0
0.967422 -0.152284 0.0
0.997236 -0.154985 0.0
1.028513 -0.152233 0.0
1.060985 -0.144048 0.0
1.094279 -0.130663 0.0
1.127844 -0.112663 0.0
1.160873 -0.091107 0.0
1.192256 -0.067602 0.0
1.220557 -0.044287 0.0
1.244070 -0.023649 0.0
1.260090 -0.009475 0.0
0.999957 -0.016108 0.0
0.999777 -0.048743 0.0
0.999551 -0.084137 0.0
0.999865 -0.125083 0.0
1.002255 -0.175258 0.0
1.010401 -0.239760 0.0
1.032904 -0.325779 0.0
1.088882 -0.438864 0.0
1.241621 -0.644179 0.0
1.351329 -0.387997 0.0
1.316001 -0.227657 0.0
1.258872 -0.146459 0.0
1.216364 -0.090438 0.0
1.186264 -0.042782 0.0
1.158730 0.002374 0.0
1.126516 0.042944 0.0
1.088320 0.075225 0.0
1.043707 0.096879 0.0
0.993176 0.106602 0.0
0.937821 0.103856 0.0
0.879870 0.088193 0.0
0.824061 0.059435 0.0
0.777659 0.017688 0.0
0.748513 -0.038337 0.0
0.747405 -0.097607 0.0
0.780648 -0.136685 0.0
0.843706 -0.138999 0.0
0.928922 -0.097665 0.0
1.022389 -0.020653 0.0
1.101176 0.062285 0.0
1.156523 0.129660 0.0
1.194987 0.183238 0.0
1.220258 0.225368 0.0
1.234224 0.257618 0.0
1.238058 0.280898 0.0
1.232742 0.295770 0.0
1.219221 0.302644 0.0
1.198444 0.301924 0.0
1.171353 0.294068 0.0
1.138870 0.279624 0.0
1.101783 0.259315 0.0
1.060375 0.234370 0.0
1.013689 0.207210 0.0
0.959135 0.181787 0.0
0.894205 0.161857 0.0
0.820708 0.147054 0.0
0.747593 0.130689 0.0
0.687677 0.103425 0.0
0.650337 0.060339 0.0
0.637035 0.003983 0.0
0.642117 -0.057996 0.0
0.658161 -0.116839 0.0
0.680508 -0.167265 0.0
0.707226 -0.206790 0.0
0.737960 -0.234150 0.0
0.773222 -0.248363 0.0
0.813902 -0.248394 0.0
0.860783 -0.233322 0.0
0.914098 -0.202847 0.0
0.973231 -0.157902 0.0
1.036526 -0.101148 0.0
1.100595 -0.037748 0.0
1.158079 0.022728 0.0
1.202750 0.072836 0.0
1.233878 0.111558 0.0
1.252467 0.139503 0.0
1.259772 0.157639 0.0
1.257152 0.167173 0.0
1.245975 0.169480 0.0
1.227535 0.166070 0.0
1.202971 0.158612 0.0
1.173218 0.148991 0.0
1.139000 0.139287 0.0
1.100966 0.131491 0.0
1.059940 0.126832 0.0
1.017241 0.124987 0.0
0.974859 0.123741 0.0
0.935325 0.119591 0.0
0.901245 0.109133 0.0
0.874699 0.090453 0.0
0.856813 0.063720 0.0
0.847703 0.030812 0.0
0.846697 -0.005522 0.0
0.852619 -0.042279 0.0
0.864083 -0.076940 0.0
0.879776 -0.107769 0.0
0.898565 -0.133733 0.0
0.919549 -0.154328 0.0
0.942075 -0.169381 0.0
0.965736 -0.178874 0.0
0.990335 -0.182809 0.0
1.015807 -0.181159 0.0
1.042117 -0.173903 0.0
1.069150 -0.161137 0.0
1.096622 -0.143227 0.0
1.124011 -0.120961 0.0
1.150510 -0.095630 0.0
1.174996 -0.069047 0.0
1.196027 -0.043432 0.0
1.211126 -0.020810 0.0
0.999344 -0.015409 0.0
0.996631 -0.046549 0.0
0.990957 -0.080431 0.0
0.981970 -0.120116 0.0
0.969415 -0.170059 0.0
0.953823 -0.237512 0.0
0.938864 -0.335571 0.0
0.940068 -0.486254 0.0
1.042804 -0.852265 0.0
1.051527 -0.192300 0.0
0.877777 -0.097864 0.0
0.748742 -0.079718 0.0
0.688098 -0.054028 0.0
0.655442 -0.016436 0.0
0.627388 0.031616 0.0
0.594667 0.078639 0.0
0.552474 0.119918 0.0
0.498528 0.150745 0.0
0.433874 0.167921 0.0
0.362854 0.168913 0.0
0.294850 0.149092 0.0
0.244165 0.105029 0.0
0.225154 0.037506 0.0
0.244979 -0.048835 0.0
0.296755 -0.137778 0.0
0.368351 -0.201353 0.0
0.453816 -0.222853 0.0
0.552504 -0.197716 0.0
0.665436 -0.127002 0.0
0.784321 -0.029038 0.0
0.886750 0.063208 0.0
0.963435 0.134543 0.0
1.021446 0.190780 0.0
1.064074 0.235612 0.0
1.092711 0.270433 0.0
1.108410 0.295852 0.0
1.112247 0.312246 0.0
1.105341 0.320006 0.0
1.088783 0.319635 0.0
1.063475 0.311848 0.0
1.029800 0.297853 0.0
0.987104 0.279936 0.0
0.933616 0.261817 0.0
0.868202 0.247149 0.0
0.794070 0.235557 0.0
0.720999 0.219922 0.0
0.661974 0.189960 0.0
0.625998 0.140046 0.0
0.613895 0.073162 0.0
0.620224 -0.001867 0.0
0.637546 -0.074551 0.0
0.659933 -0.138715 0.0
0.684155 -0.191959 0.0
0.708876 -0.233535 0.0
0.734006 -0.263268 0.0
0.760383 -0.280884 0.0
0.789483 -0.285652 0.0
0.822988 -0.276449 0.0
0.862223 -0.252271 0.0
0.907655 -0.213042 0.0
0.958651 -0.160299 0.0
1.013481 -0.097497 0.0
1.068846 -0.030372 0.0
1.118406 0.031704 0.0
1.157234 0.082733 0.0
1.184674 0.122299 0.0
1.201185 0.151028 0.0
1.207609 0.169980 0.0
1.204947 0.180511 0.0
1.194219 0.184207 0.0
1.176373 0.182885 0.0
1.152238 0.178605 0.0
1.122585 0.173544 0.0
1.088290 0.169564 0.0
1.050610 0.167465 0.0
1.011389 0.166273 0.0
0.973047 0.163179 0.0
0.938234 0.154500 0.0
0.909277 0.137260 0.0
0.887707 0.110443 0.0
0.874099 0.075225 0.0
0.868227 0.034289 0.0
0.869341 -0.009108 0.0
0.876349 -0.051622 0.0
0.887977 -0.090690 0.0
0.902954 -0.124688 0.0
0.920123 -0.152773 0.0
0.938537 -0.174685 0.0
0.957511 -0.190523 0.0
0.976655 -0.200537 0.0
0.995858 -0.204948 0.0
1.015216 -0.203850 0.0
1.034914 -0.197220 0.0
1.055092 -0.185031 0.0
1.075722 -0.167436 0.0
1.096528 -0.144947 0.0
1.116946 -0.118560 0.0
1.136113 -0.089770 0.0
1.152874 -0.060501 0.0
1.165360 -0.031326 0.0
0.998759 -0.013511 0.0
0.993627 -0.040602 0.0
0.982692 -0.069768 0.0
0.964468 -0.103568 0.0
0.936220 -0.145805 0.0
0.892930 -0.202884 0.0
0.824745 -0.287055 0.0
0.712544 -0.423773 0.0
0.321154 -0.732134 0.0
-0.482190 0.257165 0.0
-0.482190 0.000000 0.0
-0.027904 -0.019089 0.0
-0.039377 -0.051358 0.0
0.011413 -0.037239 0.0
0.079503 0.012382 0.0
0.120814 0.089283 0.0
0.117860 0.154421 0.0
0.085611 0.202436 0.0
0.037400 0.229094 0.0
-0.013025 0.229184 0.0
-0.052571 0.196371 0.0
-0.071775 0.127640 0.0
-0.064769 0.026900 0.0
-0.031663 -0.091160 0.0
0.021401 -0.200293 0.0
0.089133 -0.278168 0.0
0.168694 -0.311064 0.0
0.260490 -0.299989 0.0
0.367060 -0.244231 0.0
0.488395 -0.152029 0.0
0.616115 -0.043951 0.0
0.728592 0.052540 0.0
0.815371 0.127993 0.0
0.882392 0.188752 0.0
0.932781 0.238268 0.0
0.967720 0.277379 0.0
0.988189 0.306413 0.0
0.995182 0.325752 0.0
0.989589 0.336040 0.0
0.971928 0.338412 0.0
0.941999 0.334892 0.0
0.898940 0.328652 0.0
0.842633 0.322896 0.0
0.776648 0.317470 0.0
0.710247 0.305769 0.0
0.655887 0.277142 0.0
0.622858 0.224794 0.0
0.612890 0.151156 0.0
0.621452 0.065592 0.0
0.641594 -0.020768 0.0
0.666951 -0.098329 0.0
0.693346 -0.163719 0.0
0.718511 -0.216342 0.0
0.741296 -0.256657 0.0
0.761483 -0.285465 0.0
0.779789 -0.303370 0.0
0.797827 -0.310304 0.0
0.817855 -0.305330 0.0
0.842207 -0.286977 0.0
0.872559 -0.254121 0.0
0.909374 -0.207032 0.0
0.951772 -0.147991 0.0
0.997750 -0.081220 0.0
1.043781 -0.013038 0.0
1.084594 0.047834 0.0
1.116633 0.097719 0.0
1.139258 0.136473 0.0
1.152588 0.164780 0.0
1.157122 0.183839 0.0
1.153513 0.195215 0.0
1.142453 0.200784 0.0
1.124642 0.202652 0.0
1.100876 0.202917 0.0
1.072238 0.203123 0.0
1.040308 0.203516 0.0
1.007237 0.202515 0.0
0.975537 0.196979 0.0
0.947625 0.183426 0.0
0.925321 0.159594 0.0
0.909604 0.125395 0.0
0.900681 0.082802 0.0
0.898240 0.035024 0.0
0.901622 -0.014338 0.0
0.909856 -0.061633 0.0
0.921750 -0.104201 0.0
0.936062 -0.140465 0.0
0.951631 -0.169735 0.0
0.967482 -0.191987 0.0
0.982904 -0.207617 0.0
0.997513 -0.217196 0.0
1.011256 -0.221234 0.0
1.024360 -0.220025 0.0
1.037220 -0.213602 0.0
1.050237 -0.201844 0.0
1.063663 -0.184680 0.0
1.077490 -0.162335 0.0
1.091399 -0.135499 0.0
1.104775 -0.105373 0.0
1.116741 -0.073626 0.0
1.125989 -0.039934 0.0
0.998330 -0.010600 0.0
0.991442 -0.031495 0.0
0.976748 -0.053245 0.0
0.952094 -0.077213 0.0
0.913333 -0.105150 0.0
0.852443 -0.139359 0.0
0.752572 -0.182524 0.0
0.573609 -0.237141 0.0
0.228607 -0.283335 0.0
0.000000 0.257165 0.0
-0.000000 -0.000000 0.0
0.000000 0.000000 0.0
-0.033276 -0.033895 0.0
-0.072812 -0.065337 0.0
-0.081422 -0.019002 0.0
-0.087097 0.085031 0.0
-0.101883 0.176414 0.0
-0.130067 0.240877 0.0
-0.164623 0.273422 0.0
-0.196698 0.267356 0.0
-0.216946 0.217993 0.0
-0.217590 0.125868 0.0
-0.194719 -0.001205 0.0
-0.154248 -0.136633 0.0
-0.106138 -0.255993 0.0
-0.052653 -0.343685 0.0
0.009559 -0.387318 0.0
0.083549 -0.389520 0.0
0.172025 -0.349745 0.0
0.276806 -0.272630 0.0
0.395192 -0.169455 0.0
0.518197 -0.057438 0.0
0.627294 0.042094 0.0
0.712749 0.122175 0.0
0.778915 0.188288 0.0
0.828357 0.242978 0.0
0.861975 0.286727 0.0
0.880424 0.319996 0.0
0.884121 0.343691 0.0
0.873090 0.359453 0.0
0.847083 0.369787 0.0
0.806623 0.377276 0.0
0.755181 0.382022 0.0
0.700933 0.378578 0.0
0.655288 0.356706 0.0
0.627756 0.308097 0.0
0.621416 0.233209 0.0
0.633150 0.140976 0.0
0.657225 0.043135 0.0
0.687368 -0.048596 0.0
0.718535 -0.127024 0.0
0.747897 -0.190782 0.0
0.773744 -0.240291 0.0
0.795043 -0.276793 0.0
0.811415 -0.301888 0.0
0.823246 -0.317084 0.0
0.831872 -0.323254 0.0
0.839609 -0.320147 0.0
0.849427 -0.306330 0.0
0.864173 -0.279866 0.0
0.885665 -0.239594 0.0
0.914138 -0.186300 0.0
0.948320 -0.123072 0.0
0.985890 -0.054787 0.0
1.022984 0.011678 0.0
1.055376 0.069444 0.0
1.080782 0.116717 0.0
1.098484 0.153504 0.0
1.108392 0.180673 0.0
1.110737 0.199646 0.0
1.105918 0.212232 0.0
1.094491 0.220442 0.0
1.077262 0.226121 0.0
1.055461 0.230358 0.0
1.030855 0.232818 0.0
1.005664 0.231475 0.0
0.982222 0.223160 0.0
0.962497 0.204882 0.0
0.947749 0.175191 0.0
0.938489 0.134777 0.0
0.934703 0.086130 0.0
0.936102 0.032739 0.0
0.942127 -0.021460 0.0
0.951848 -0.072466 0.0
0.964102 -0.117515 0.0
0.977694 -0.155055 0.0
0.991511 -0.184531 0.0
1.004612 -0.206143 0.0
1.016315 -0.220587 0.0
1.026260 -0.228780 0.0
1.034442 -0.231575 0.0
1.041194 -0.229540 0.0
1.047090 -0.222843 0.0
1.052785 -0.211315 0.0
1.058827 -0.194677 0.0
1.065506 -0.172843 0.0
1.072778 -0.146174 0.0
1.080282 -0.115579 0.0
1.087403 -0.082507 0.0
1.093261 -0.046158 0.0
0.998140 -0.007069 0.0
0.990511 -0.020509 0.0
0.974377 -0.033404 0.0
0.947706 -0.045732 0.0
0.906861 -0.057024 0.0
0.845875 -0.065610 0.0
0.755604 -0.066130 0.0
0.624888 -0.043855 0.0
0.456697 0.041654 0.0
0.182698 0.164218 0.0
0.000000 0.000000 0.0
-0.000000 -0.000000 0.0
0.000000 0.000000 0.0
-0.028752 -0.029538 0.0
-0.073076 -0.001079 0.0
-0.110148 0.109854 0.0
-0.148470 0.204698 0.0
-0.179278 0.271584 0.0
-0.204685 0.302678 0.0
-0.222399 0.287888 0.0
-0.225200 0.220510 0.0
-0.204990 0.103784 0.0
-0.163332 -0.043651 0.0
-0.114413 -0.183577 0.0
-0.070183 -0.301389 0.0
-0.033242 -0.388716 0.0
0.001273 -0.439014 0.0
0.041744 -0.452286 0.0
0.095340 -0.429052 0.0
0.167326 -0.370090 0.0
0.258136 -0.281192 0.0
0.362505 -0.173075 0.0
0.470633 -0.059494 0.0
0.566887 0.042055 0.0
0.642981 0.126148 0.0
0.701487 0.197170 0.0
0.743793 0.256610 0.0
0.770245 0.305213 0.0
0.780870 0.344153 0.0
0.775683 0.375209 0.0
0.755483 0.400239 0.0
0.723354 0.419412 0.0
0.686078 0.428605 0.0
0.653483 0.418838 0.0
0.634754 0.380821 0.0
0.634184 0.312083 0.0
0.650358 0.219388 0.0
0.678831 0.114590 0.0
0.714503 0.009775 0.0
0.751960 -0.082835 0.0
0.787174 -0.159166 0.0
0.818204 -0.219033 0.0
0.843818 -0.263500 0.0
0.863262 -0.294328 0.0
0.876200 -0.313663 0.0
0.882788 -0.323728 0.0
0.883898 -0.326345 0.0
0.881405 -0.322300 0.0
0.878252 -0.310842 0.0
0.877987 -0.289834 0.0
0.883757 -0.256887 0.0
0.897271 -0.210993 0.0
0.918346 -0.153636 0.0
0.945229 -0.088678 0.0
0.975168 -0.021464 0.0
1.004363 0.040998 0.0
1.029547 0.094573 0.0
1.049179 0.138315 0.0
1.062562 0.172571 0.0
1.069490 0.198476 0.0
1.070075 0.217636 0.0