# vtk DataFile Version 3.0
Vector Field
ASCII
DATASET RECTILINEAR_GRID
DIMENSIONS 100 26 1
X_COORDINATES 100 double
0.050000 0.150000 0.250000 0.350000 0.450000 0.550000 0.650000 0.750000 0.850000 0.950000 1.050000 1.150000 1.250000 1.350000 1.450000 1.550000 1.650000 1.750000 1.850000 1.950000 2.050000 2.150000 2.250000 2.350000 2.450000 2.550000 2.650000 2.750000 2.850000 2.950000 3.050000 3.150000 3.250000 3.350000 3.450000 3.550000 3.650000 3.750000 3.850000 3.950000 4.050000 4.150000 4.250000 4.350000 4.450000 4.550000 4.650000 4.750000 4.850000 4.950000 5.050000 5.150000 5.250000 5.350000 5.450000 5.550000 5.650000 5.750000 5.850000 5.950000 6.050000 6.150000 6.250000 6.350000 6.450000 6.550000 6.650000 6.750000 6.850000 6.950000 7.050000 7.150000 7.250000 7.350000 7.450000 7.550000 7.650000 7.750000 7.850000 7.950000 8.050000 8.150000 8.250000 8.350000 8.450000 8.550000 8.650000 8.750000 8.850000 8.950000 9.050000 9.150000 9.250000 9.350000 9.450000 9.550000 9.650000 9.750000 9.850000 9.950000 
Y_COORDINATES 26 double
0.050000 0.150000 0.250000 0.350000 0.450000 0.550000 0.650000 0.750000 0.850000 0.950000 1.050000 1.150000 1.250000 1.350000 1.450000 1.550000 1.650000 1.750000 1.850000 1.950000 2.050000 2.150000 2.250000 2.350000 2.450000 2.550000 
Z_COORDINATES 1 double
0.0
POINT_DATA 2600
VECTORS Vektorfeld double
1.000764 -0.000764 0.0
1.004268 -0.002741 0.0
1.011880 -0.004871 0.0
1.023797 -0.007046 0.0
1.040024 -0.009182 0.0
1.060382 -0.011175 0.0
1.084441 -0.012884 0.0
1.111467 -0.014142 0.0
1.140407 -0.014798 0.0
1.169975 -0.014770 0.0
1.198845 -0.014100 0.0
1.225888 -0.012943 0.0
1.250342 -0.011512 0.0
1.271865 -0.010011 0.0
1.290480 -0.008604 0.0
1.306477 -0.007392 0.0
1.320276 -0.006407 0.0
1.332292 -0.005610 0.0
1.342799 -0.004897 0.0
1.351813 -0.004116 0.0
1.359025 -0.003095 0.0
1.363815 -0.001695 0.0
1.365371 0.000140 0.0
1.362818 0.002413 0.0
1.355386 0.005019 0.0
1.342571 0.007795 0.0
1.324219 0.010557 0.0
1.300533 0.013130 0.0
1.272030 0.015373 0.0
1.239472 0.017184 0.0
1.203790 0.018498 0.0
1.166011 0.019280 0.0
1.127214 0.019517 0.0
1.088491 0.019206 0.0
1.050929 0.018356 0.0
1.015602 0.016971 0.0
0.983574 0.015057 0.0
0.955910 0.012607 0.0
0.933715 0.009588 0.0
0.918187 0.005940 0.0
0.910601 0.001645 0.0
0.912004 -0.003048 0.0
0.922895 -0.007843 0.0
0.943274 -0.012536 0.0
0.972684 -0.016874 0.0
1.010089 -0.020531 0.0
1.053752 -0.023132 0.0
1.101179 -0.024295 0.0
1.149161 -0.023687 0.0
1.193975 -0.021127 0.0
1.231813 -0.016710 0.0
1.259431 -0.010908 0.0
1.274872 -0.004534 0.0
1.277786 0.001620 0.0
1.268901 0.007264 0.0
1.249456 0.012181 0.0
1.221070 0.016205 0.0
1.185623 0.019242 0.0
1.145115 0.021266 0.0
1.101550 0.022299 0.0
1.056856 0.022395 0.0
1.012850 0.021611 0.0
0.971243 0.019996 0.0
0.933653 0.017593 0.0
0.901608 0.014452 0.0
0.876484 0.010672 0.0
0.859377 0.006435 0.0
0.850891 0.002051 0.0
0.850772 -0.001932 0.0
0.857887 -0.005183 0.0
0.870853 -0.007783 0.0
0.888506 -0.009870 0.0
0.909945 -0.011569 0.0
0.934482 -0.012968 0.0
0.961555 -0.014105 0.0
0.990619 -0.014959 0.0
1.021011 -0.015433 0.0
1.051797 -0.015353 0.0
1.081647 -0.014497 0.0
1.108804 -0.012659 0.0
1.131216 -0.009753 0.0
1.146902 -0.005933 0.0
1.154467 -0.001633 0.0
1.153382 0.002718 0.0
1.143738 0.006925 0.0
1.126000 0.010814 0.0
1.100993 0.014193 0.0
1.069916 0.016884 0.0
1.034303 0.018729 0.0
0.995967 0.019606 0.0
0.956912 0.019449 0.0
0.919182 0.018281 0.0
0.884674 0.016226 0.0
0.854932 0.013516 0.0
0.830966 0.010449 0.0
0.813176 0.007341 0.0
0.801346 0.004488 0.0
0.794688 0.002170 0.0
0.791849 0.000669 0.0
0.790157 0.001023 0.0
1.001312 -0.002839 0.0
1.006216 -0.009074 0.0
1.015635 -0.015567 0.0
1.029523 -0.022155 0.0
1.047864 -0.028642 0.0
1.070520 -0.034729 0.0
1.097113 -0.039983 0.0
1.126920 -0.043876 0.0
1.158817 -0.045901 0.0
1.191337 -0.045757 0.0
1.222935 -0.043580 0.0
1.252327 -0.039898 0.0
1.278718 -0.035402 0.0
1.301819 -0.030744 0.0
1.321763 -0.026430 0.0
1.338968 -0.022768 0.0
1.353994 -0.019855 0.0
1.367390 -0.017574 0.0
1.379552 -0.015603 0.0
1.390585 -0.013457 0.0
1.400201 -0.010583 0.0
1.407707 -0.006505 0.0
1.412084 -0.000983 0.0
1.412225 0.005948 0.0
1.407209 0.013933 0.0
1.396463 0.022443 0.0
1.379832 0.030892 0.0
1.357569 0.038743 0.0
1.330268 0.045564 0.0
1.298771 0.051048 0.0
1.264077 0.055010 0.0
1.227271 0.057354 0.0
1.189465 0.058046 0.0
1.151774 0.057091 0.0
1.115295 0.054512 0.0
1.081102 0.050335 0.0
1.050242 0.044583 0.0
1.023721 0.037266 0.0
1.002465 0.028378 0.0
0.987233 0.017911 0.0
0.978554 0.005939 0.0
0.976998 -0.007190 0.0
0.983421 -0.021014 0.0
0.998629 -0.034951 0.0
1.022907 -0.048146 0.0
1.055805 -0.059563 0.0
1.096135 -0.068094 0.0
1.141999 -0.072624 0.0
1.190782 -0.072123 0.0
1.239153 -0.065877 0.0
1.283231 -0.053877 0.0
1.319056 -0.037184 0.0
1.343310 -0.017953 0.0
1.354175 0.001261 0.0
1.351829 0.018853 0.0
1.337769 0.034097 0.0
1.313930 0.046514 0.0
1.282448 0.055862 0.0
1.245502 0.062099 0.0
1.205209 0.065324 0.0
1.163564 0.065711 0.0
1.122407 0.063458 0.0
1.083410 0.058753 0.0
1.048036 0.051800 0.0
1.017447 0.042879 0.0
0.992378 0.032439 0.0
0.973020 0.021132 0.0
0.959088 0.009771 0.0
0.950302 -0.000745 0.0
0.946630 -0.009813 0.0
0.947947 -0.017436 0.0
0.953904 -0.023827 0.0
0.964068 -0.029217 0.0
0.978030 -0.033819 0.0
0.995473 -0.037770 0.0
1.016177 -0.041062 0.0
1.039927 -0.043473 0.0
1.066372 -0.044544 0.0
1.094859 -0.043643 0.0
1.124301 -0.040111 0.0
1.153075 -0.033488 0.0
1.178973 -0.023781 0.0
1.199289 -0.011667 0.0
1.211524 0.001603 0.0
1.214622 0.014587 0.0
1.209009 0.026504 0.0
1.195700 0.036818 0.0
1.175997 0.045040 0.0
1.151421 0.050763 0.0
1.123634 0.053695 0.0
1.094348 0.053703 0.0
1.065229 0.050877 0.0
1.037796 0.045570 0.0
1.013322 0.038389 0.0
0.992733 0.030131 0.0
0.976507 0.021675 0.0
0.964609 0.013882 0.0
0.956486 0.007557 0.0
0.951211 0.003396 0.0
0.947360 0.003840 0.0
1.001198 -0.005350 0.0
1.005918 -0.016188 0.0
1.015292 -0.027245 0.0
1.029391 -0.038465 0.0
1.048341 -0.049622 0.0
1.072183 -0.060247 0.0
1.100707 -0.069582 0.0
1.133241 -0.076617 0.0
1.168495 -0.080309 0.0
1.204523 -0.079897 0.0
1.239156 -0.075669 0.0
1.270705 -0.068752 0.0
1.298284 -0.060518 0.0
1.321739 -0.052183 0.0
1.341444 -0.044640 0.0
1.358098 -0.038418 0.0
1.372547 -0.033681 0.0
1.385625 -0.030222 0.0
1.397970 -0.027463 0.0
1.409843 -0.024502 0.0
1.420946 -0.020257 0.0
1.430372 -0.013761 0.0
1.436773 -0.004504 0.0
1.438720 0.007380 0.0
1.435046 0.021190 0.0
1.425055 0.035922 0.0
1.408603 0.050496 0.0
1.386053 0.063953 0.0
1.358151 0.075558 0.0
1.325883 0.084820 0.0
1.290356 0.091459 0.0
1.252714 0.095354 0.0
1.214078 0.096487 0.0
1.175524 0.094894 0.0
1.138071 0.090640 0.0
1.102673 0.083797 0.0
1.070216 0.074437 0.0
1.041519 0.062630 0.0
1.017345 0.048444 0.0
0.998470 0.031953 0.0
0.985798 0.013248 0.0
0.980377 -0.007522 0.0
0.983151 -0.029880 0.0
0.994630 -0.052773 0.0
1.014735 -0.074708 0.0
1.042945 -0.094109 0.0
1.078518 -0.109450 0.0
1.120529 -0.119143 0.0
1.167605 -0.121463 0.0
1.217526 -0.114827 0.0
1.266935 -0.098413 0.0
1.311398 -0.072934 0.0
1.346061 -0.041119 0.0
1.367037 -0.007414 0.0
1.373176 0.023735 0.0
1.365921 0.050530 0.0
1.347626 0.072215 0.0
1.320783 0.088485 0.0
1.287832 0.099374 0.0
1.251024 0.105150 0.0
1.212355 0.106200 0.0
1.173532 0.102949 0.0
1.135959 0.095831 0.0
1.100721 0.085333 0.0
1.068580 0.072076 0.0
1.040008 0.056884 0.0
1.015300 0.040754 0.0
0.994691 0.024690 0.0
0.978374 0.009440 0.0
0.966486 -0.004438 0.0
0.958972 -0.016614 0.0
0.955494 -0.027128 0.0
0.955649 -0.036235 0.0
0.959185 -0.044299 0.0
0.966119 -0.051667 0.0
0.976721 -0.058471 0.0
0.991360 -0.064455 0.0
1.010277 -0.068924 0.0
1.033370 -0.070843 0.0
1.060074 -0.069055 0.0
1.089303 -0.062548 0.0
1.119446 -0.050761 0.0
1.148357 -0.033914 0.0
1.173345 -0.013373 0.0
1.191527 0.008283 0.0
1.201491 0.028457 0.0
1.203638 0.046027 0.0
1.198928 0.060244 0.0
1.188526 0.070535 0.0
1.173711 0.076525 0.0
1.155779 0.078090 0.0
1.135979 0.075410 0.0
1.115445 0.069005 0.0
1.095155 0.059718 0.0
1.075905 0.048642 0.0
1.058296 0.036998 0.0
1.042752 0.026001 0.0
1.029553 0.016761 0.0
1.018858 0.010163 0.0
1.011203 0.008579 0.0
1.001147 -0.007695 0.0
1.005737 -0.023152 0.0
1.015014 -0.038931 0.0
1.029253 -0.055118 0.0
1.048859 -0.071525 0.0
1.074234 -0.087560 0.0
1.105534 -0.102093 0.0
1.142298 -0.113404 0.0
1.183087 -0.119565 0.0
1.224992 -0.118576 0.0
1.264473 -0.111104 0.0
1.299101 -0.099495 0.0
1.327978 -0.086230 0.0
1.351308 -0.073256 0.0
1.369927 -0.061892 0.0
1.384998 -0.052891 0.0
1.397825 -0.046484 0.0
1.409699 -0.042369 0.0
1.421709 -0.039672 0.0
1.434468 -0.036925 0.0
1.447776 -0.032246 0.0
1.460412 -0.023834 0.0
1.470283 -0.010703 0.0
1.475116 0.006799 0.0
1.473172 0.027389 0.0
1.463536 0.049350 0.0
1.446136 0.070920 0.0
1.421593 0.090621 0.0
1.390986 0.107400 0.0
1.355615 0.120617 0.0
1.316836 0.129967 0.0
1.275955 0.135370 0.0
1.234179 0.136883 0.0
1.192604 0.134626 0.0
1.152220 0.128746 0.0
1.113919 0.119390 0.0
1.078521 0.106699 0.0
1.046788 0.090798 0.0
1.019467 0.071771 0.0
0.997337 0.049631 0.0
0.981218 0.024361 0.0
0.971829 -0.003826 0.0
0.969531 -0.034051 0.0
0.974165 -0.064713 0.0
0.985292 -0.094001 0.0
1.002725 -0.120458 0.0
1.026872 -0.142821 0.0
1.058478 -0.159390 0.0
1.097915 -0.167728 0.0
1.144473 -0.165041 0.0
1.195945 -0.149081 0.0
1.248471 -0.119256 0.0
1.296646 -0.077636 0.0
1.334201 -0.029429 0.0
1.356091 0.017721 0.0
1.361551 0.058339 0.0
1.353089 0.091164 0.0
1.333651 0.115817 0.0
1.306155 0.132487 0.0
1.273276 0.141724 0.0
1.237310 0.144261 0.0
1.200125 0.140895 0.0
1.163153 0.132431 0.0
1.127421 0.119703 0.0
1.093641 0.103628 0.0
1.062325 0.085219 0.0
1.033902 0.065550 0.0
1.008744 0.045661 0.0
0.987052 0.026477 0.0
0.968708 0.008756 0.0
0.953339 -0.006925 0.0
0.940511 -0.020512 0.0
0.930004 -0.032498 0.0
0.922060 -0.043627 0.0
0.917426 -0.054638 0.0
0.917178 -0.065854 0.0
0.922354 -0.076888 0.0
0.933588 -0.086641 0.0
0.950932 -0.093564 0.0
0.973891 -0.095996 0.0
1.001539 -0.092485 0.0
1.032631 -0.082058 0.0
1.065610 -0.064508 0.0
1.098525 -0.040685 0.0
1.128761 -0.012823 0.0
1.153090 0.015271 0.0
1.169860 0.040295 0.0
1.179479 0.061067 0.0
1.182740 0.076853 0.0
1.180547 0.087216 0.0
1.173837 0.092040 0.0
1.163531 0.091565 0.0
1.150513 0.086403 0.0
1.135618 0.077505 0.0
1.119648 0.066075 0.0
1.103388 0.053433 0.0
1.087617 0.040881 0.0
1.073113 0.029585 0.0
1.060650 0.020496 0.0
1.051497 0.015053 0.0
1.001075 -0.009918 0.0
1.005414 -0.029859 0.0
1.014318 -0.050405 0.0
1.028320 -0.071885 0.0
1.048242 -0.094286 0.0
1.075087 -0.117018 0.0
1.109751 -0.138599 0.0
1.152367 -0.156278 0.0
1.201758 -0.166869 0.0
1.252980 -0.164400 0.0
1.299282 -0.151062 0.0
1.337175 -0.132058 0.0
1.366285 -0.111655 0.0
1.387729 -0.092606 0.0
1.403144 -0.076575 0.0
1.414340 -0.064475 0.0
1.423204 -0.056591 0.0
1.431647 -0.052578 0.0
1.441473 -0.051299 0.0
1.454029 -0.050612 0.0
1.469600 -0.047437 0.0
1.486812 -0.038491 0.0
1.502524 -0.021630 0.0
1.512736 0.002680 0.0
1.514410 0.031778 0.0
1.506243 0.062764 0.0
1.488289 0.092859 0.0
1.461597 0.119917 0.0
1.427745 0.142564 0.0
1.388476 0.160091 0.0
1.345481 0.172266 0.0
1.300288 0.179145 0.0
1.254240 0.180932 0.0
1.208502 0.177890 0.0
1.164088 0.170281 0.0
1.121900 0.158345 0.0
1.082753 0.142290 0.0
1.047401 0.122292 0.0
1.016528 0.098471 0.0
0.990675 0.070914 0.0
0.970072 0.039802 0.0
0.954451 0.005742 0.0
0.943111 -0.029980 0.0
0.935297 -0.065604 0.0
0.930883 -0.099824 0.0
0.931126 -0.132310 0.0
0.938616 -0.162606 0.0
0.956090 -0.188685 0.0
0.985069 -0.206848 0.0
1.025302 -0.212712 0.0
1.074911 -0.202491 0.0
1.130673 -0.174133 0.0
1.188075 -0.128336 0.0
1.241210 -0.069418 0.0
1.282912 -0.005883 0.0
1.308054 0.051341 0.0
1.316594 0.098083 0.0
1.311245 0.133685 0.0
1.294966 0.158395 0.0
1.270630 0.173032 0.0
1.240823 0.178725 0.0
1.207724 0.176715 0.0
1.173055 0.168253 0.0
1.138106 0.154562 0.0
1.103821 0.136835 0.0
1.070901 0.116247 0.0
1.039883 0.093963 0.0
1.011104 0.071186 0.0
0.984584 0.049164 0.0
0.959956 0.029041 0.0
0.936604 0.011512 0.0
0.914059 -0.003576 0.0
0.892546 -0.017413 0.0
0.873353 -0.031575 0.0
0.858476 -0.047178 0.0
0.849816 -0.064406 0.0
0.848588 -0.082282 0.0
0.855074 -0.098967 0.0
0.868812 -0.112321 0.0
0.888948 -0.120333 0.0
0.914503 -0.121352 0.0
0.944474 -0.114254 0.0
0.977804 -0.098620 0.0
1.013257 -0.074941 0.0
1.049260 -0.044804 0.0
1.083439 -0.011256 0.0
1.112484 0.021007 0.0
1.134591 0.048630 0.0
1.150040 0.070581 0.0
1.159378 0.086343 0.0
1.163229 0.095772 0.0
1.162262 0.099106 0.0
1.157179 0.096963 0.0
1.148729 0.090290 0.0
1.137719 0.080269 0.0
1.125027 0.068191 0.0
1.111599 0.055323 0.0
1.098436 0.042810 0.0
1.086573 0.031597 0.0
1.077470 0.022208 0.0
1.000937 -0.011930 0.0
1.004744 -0.035992 0.0
1.012697 -0.061128 0.0
1.025608 -0.088074 0.0
1.044824 -0.117236 0.0
1.072242 -0.148331 0.0
1.110097 -0.179805 0.0
1.159985 -0.207577 0.0
1.222728 -0.227704 0.0
1.288338 -0.220397 0.0
1.342237 -0.195265 0.0
1.380768 -0.164279 0.0
1.406116 -0.133892 0.0
1.421410 -0.107107 0.0
1.429400 -0.085480 0.0
1.432529 -0.069895 0.0
1.433153 -0.060658 0.0
1.433738 -0.057539 0.0
1.436985 -0.059411 0.0
1.445526 -0.063597 0.0
1.460949 -0.065446 0.0
1.482579 -0.059324 0.0
1.506668 -0.040599 0.0
1.526608 -0.008504 0.0
1.536188 0.031708 0.0
1.532820 0.074371 0.0
1.516874 0.115152 0.0
1.490094 0.151096 0.0
1.454746 0.180585 0.0
1.413092 0.202992 0.0
1.367156 0.218297 0.0
1.318664 0.226798 0.0
1.269073 0.228918 0.0
1.219618 0.225097 0.0
1.171370 0.215735 0.0
1.125280 0.201168 0.0
1.082217 0.181677 0.0
1.042958 0.157516 0.0
1.008083 0.128995 0.0
0.977702 0.096625 0.0
0.951064 0.061332 0.0
0.926369 0.024527 0.0
0.901376 -0.012432 0.0
0.875314 -0.049276 0.0
0.850443 -0.086868 0.0
0.831741 -0.126807 0.0
0.824717 -0.168575 0.0
0.832599 -0.208072 0.0
0.855521 -0.239362 0.0
0.891685 -0.256595 0.0
0.938569 -0.255101 0.0
0.993365 -0.232081 0.0
1.052870 -0.187296 0.0
1.113103 -0.123826 0.0
1.168732 -0.048805 0.0
1.212449 0.025405 0.0
1.239951 0.087977 0.0
1.252158 0.136932 0.0
1.251312 0.172273 0.0
1.239918 0.194885 0.0
1.220442 0.206155 0.0
1.195131 0.207695 0.0
1.165906 0.201166 0.0
1.134331 0.188171 0.0
1.101635 0.170208 0.0
1.068745 0.148683 0.0
1.036279 0.125011 0.0
1.004449 0.100748 0.0
0.972986 0.077584 0.0
0.941298 0.056937 0.0
0.909003 0.039261 0.0
0.876666 0.023557 0.0
0.846015 0.007618 0.0
0.819486 -0.010884 0.0
0.799574 -0.033079 0.0
0.787984 -0.058255 0.0
0.785058 -0.084279 0.0
0.790108 -0.108505 0.0
0.802060 -0.128473 0.0
0.819902 -0.142159 0.0
0.842821 -0.148001 0.0
0.870172 -0.144928 0.0
0.901359 -0.132463 0.0
0.935696 -0.110890 0.0
0.972259 -0.081421 0.0
1.009727 -0.046286 0.0
1.045831 -0.009112 0.0
1.077346 0.025127 0.0
1.102519 0.053463 0.0
1.121468 0.075174 0.0
1.134516 0.090041 0.0
1.142086 0.098234 0.0
1.144703 0.100300 0.0
1.143006 0.097101 0.0
1.137749 0.089725 0.0
1.129806 0.079371 0.0
1.120148 0.067230 0.0
1.109826 0.054388 0.0
1.099933 0.041775 0.0
1.091868 0.029199 0.0
1.000693 -0.013560 0.0
1.003530 -0.041007 0.0
1.009607 -0.070143 0.0
1.019945 -0.102307 0.0
1.036405 -0.138680 0.0
1.061989 -0.179889 0.0
1.101068 -0.225182 0.0
1.158389 -0.269409 0.0
1.242056 -0.312282 0.0
1.328029 -0.287402 0.0
1.384035 -0.238164 0.0
1.413440 -0.189316 0.0
1.425964 -0.146727 0.0
1.427753 -0.111354 0.0
1.422216 -0.083686 0.0
1.411762 -0.064362 0.0
1.398530 -0.053583 0.0
1.384866 -0.051537 0.0
1.374048 -0.057842 0.0
1.370452 -0.070111 0.0
1.378132 -0.082036 0.0
1.398789 -0.085020 0.0
1.430397 -0.070599 0.0
1.465467 -0.033513 0.0
1.491598 0.021006 0.0
1.501051 0.078988 0.0
1.494283 0.133248 0.0
1.474090 0.179972 0.0
1.443574 0.217573 0.0
1.405456 0.245775 0.0
1.361949 0.264957 0.0
1.314837 0.275742 0.0
1.265607 0.278797 0.0
1.215541 0.274740 0.0
1.165785 0.264097 0.0
1.117395 0.247287 0.0
1.071358 0.224659 0.0
1.028537 0.196613 0.0
0.989403 0.163906 0.0
0.953432 0.128066 0.0
0.918451 0.091511 0.0
0.880861 0.056634 0.0
0.837753 0.023562 0.0
0.790499 -0.011954 0.0
0.747377 -0.056197 0.0
0.719063 -0.110461 0.0
0.710488 -0.169323 0.0
0.719931 -0.224650 0.0
0.743414 -0.269189 0.0
0.777717 -0.297235 0.0
0.820778 -0.304407 0.0
0.871037 -0.287831 0.0
0.926794 -0.246808 0.0
0.985803 -0.183557 0.0
1.044883 -0.103782 0.0
1.098900 -0.017353 0.0
1.141344 0.060788 0.0
1.169291 0.123967 0.0
1.183795 0.171580 0.0
1.186490 0.204276 0.0
1.179279 0.223451 0.0
1.164100 0.230889 0.0
1.142779 0.228517 0.0
1.116935 0.218239 0.0
1.087915 0.201857 0.0
1.056729 0.181110 0.0
1.023929 0.157849 0.0
0.989501 0.134168 0.0
0.952984 0.112144 0.0
0.914064 0.092986 0.0
0.873497 0.076074 0.0
0.833674 0.058904 0.0
0.798169 0.038426 0.0
0.770276 0.012730 0.0
0.751545 -0.018050 0.0
0.741784 -0.051934 0.0
0.739967 -0.085859 0.0
0.744845 -0.116852 0.0
0.755330 -0.142564 0.0
0.770648 -0.161228 0.0
0.790316 -0.171518 0.0
0.814047 -0.172493 0.0
0.841630 -0.163667 0.0
0.872778 -0.145172 0.0
0.907005 -0.117928 0.0
0.943501 -0.083743 0.0
0.981039 -0.045297 0.0
1.017357 -0.006522 0.0
1.049405 0.027890 0.0
1.075612 0.055591 0.0
1.095992 0.076196 0.0
1.110740 0.089762 0.0
1.120192 0.096703 0.0
1.124839 0.097747 0.0
1.125327 0.093846 0.0
1.122444 0.086076 0.0
1.117095 0.075531 0.0
1.110275 0.063229 0.0
1.103018 0.050083 0.0
1.096548 0.035426 0.0
1.000317 -0.014569 0.0
1.001631 -0.044150 0.0
1.004613 -0.076061 0.0
1.010268 -0.112383 0.0
1.020656 -0.155452 0.0
1.039663 -0.207708 0.0
1.074288 -0.271067 0.0
1.135120 -0.341676 0.0
1.249352 -0.437914 0.0
1.356154 -0.354546 0.0
1.391239 -0.262111 0.0
1.390097 -0.193632 0.0
1.376244 -0.141081 0.0
1.356539 -0.099084 0.0
1.332424 -0.066305 0.0
1.304687 -0.043553 0.0
1.273932 -0.030405 0.0
1.240594 -0.027712 0.0
1.206861 -0.037115 0.0
1.178793 -0.059174 0.0
1.164654 -0.086514 0.0
1.171136 -0.107681 0.0
1.201320 -0.109730 0.0
1.251458 -0.079590 0.0
1.306571 -0.014161 0.0
1.346713 0.064560 0.0
1.365077 0.136081 0.0
1.366330 0.196080 0.0
1.354566 0.243745 0.0
1.332720 0.279567 0.0
1.302927 0.304466 0.0
1.266884 0.319387 0.0
1.226076 0.325189 0.0
1.181882 0.322607 0.0
1.135615 0.312253 0.0
1.088533 0.294603 0.0
1.041852 0.270061 0.0
0.996593 0.239290 0.0
0.952799 0.204156 0.0
0.907913 0.168672 0.0
0.856352 0.137447 0.0
0.794051 0.110589 0.0
0.726222 0.080543 0.0
0.667717 0.036824 0.0
0.631486 -0.025622 0.0
0.619559 -0.100795 0.0
0.625819 -0.176674 0.0
0.643280 -0.244203 0.0
0.667966 -0.297805 0.0
0.698499 -0.333454 0.0
0.734831 -0.347580 0.0
0.777169 -0.337255 0.0
0.825253 -0.301224 0.0
0.878047 -0.240944 0.0
0.933679 -0.161106 0.0
0.989285 -0.069651 0.0
1.039272 0.020654 0.0
1.078343 0.097082 0.0
1.105171 0.157134 0.0
1.120294 0.200904 0.0
1.124800 0.229528 0.0
1.120062 0.244729 0.0
1.107547 0.248513 0.0
1.088671 0.242963 0.0
1.064668 0.230157 0.0
1.036420 0.212244 0.0
1.004314 0.191621 0.0
0.968271 0.170868 0.0
0.928213 0.152018 0.0
0.884946 0.135299 0.0
0.840848 0.118426 0.0
0.799624 0.097599 0.0
0.765018 0.069842 0.0
0.739407 0.034817 0.0
0.723252 -0.005249 0.0
0.715474 -0.047196 0.0
0.714476 -0.087781 0.0
0.718909 -0.124240 0.0
0.727806 -0.154558 0.0
0.740552 -0.177298 0.0
0.756841 -0.191404 0.0
0.776605 -0.196103 0.0
0.799903 -0.190938 0.0
0.826772 -0.175919 0.0
0.857071 -0.151706 0.0
0.890352 -0.119744 0.0
0.925795 -0.082277 0.0
0.962165 -0.042230 0.0
0.997237 -0.003522 0.0
1.028261 0.029773 0.0
1.053921 0.055974 0.0
1.074182 0.074974 0.0
1.089191 0.087029 0.0
1.099269 0.092695 0.0
1.104915 0.092765 0.0
1.106782 0.088174 0.0
1.105655 0.079910 0.0
1.102407 0.068919 0.0
1.097957 0.056100 0.0
1.093306 0.040530 0.0
0.999813 -0.014699 0.0
0.999061 -0.044582 0.0
0.997695 -0.077245 0.0
0.996280 -0.115439 0.0
0.996281 -0.162784 0.0
1.001198 -0.224301 0.0
1.019250 -0.307150 0.0
1.068424 -0.415599 0.0
1.212180 -0.621978 0.0
1.314909 -0.380013 0.0
1.275643 -0.232464 0.0
1.214389 -0.160883 0.0
1.164578 -0.110166 0.0
1.122128 -0.067845 0.0
1.081643 -0.032943 0.0
1.037982 -0.005518 0.0
0.988265 0.012031 0.0
0.933088 0.018367 0.0
0.873708 0.009919 0.0
0.814126 -0.018558 0.0
0.769043 -0.067908 0.0
0.759192 -0.122919 0.0
0.792682 -0.158165 0.0
0.861626 -0.150237 0.0
0.951618 -0.088619 0.0
1.039623 0.010871 0.0
1.104799 0.106229 0.0
1.146113 0.183366 0.0
1.169958 0.244378 0.0
1.179508 0.291229 0.0
1.176682 0.325423 0.0
1.163058 0.348098 0.0
1.140185 0.360159 0.0
1.109638 0.362377 0.0
1.072972 0.355417 0.0
1.031623 0.339869 0.0
0.986632 0.316467 0.0
0.937775 0.287001 0.0
0.882268 0.255747 0.0
0.815615 0.228620 0.0
0.737572 0.207103 0.0
0.658663 0.182142 0.0
0.596598 0.138885 0.0
0.563305 0.070280 0.0
0.557322 -0.016864 0.0
0.568266 -0.108570 0.0
0.586602 -0.193494 0.0
0.607791 -0.266032 0.0
0.630420 -0.323290 0.0
0.654793 -0.362874 0.0
0.682232 -0.381931 0.0
0.714360 -0.377370 0.0
0.752280 -0.347113 0.0
0.796037 -0.291607 0.0
0.844591 -0.214628 0.0
0.895963 -0.123106 0.0
0.946813 -0.026728 0.0
0.991652 0.060554 0.0
1.026585 0.131902 0.0
1.051019 0.186580 0.0
1.065145 0.225220 0.0
1.069646 0.249275 0.0
1.065475 0.260654 0.0
1.053669 0.261503 0.0
1.035159 0.254131 0.0
1.010581 0.241095 0.0
0.980209 0.225247 0.0
0.944219 0.209276 0.0
0.903373 0.194514 0.0
0.859760 0.179684 0.0
0.816868 0.161031 0.0
0.778613 0.134472 0.0
0.747921 0.098268 0.0
0.725936 0.053986 0.0
0.712304 0.005369 0.0
0.705867 -0.043600 0.0
0.705253 -0.089766 0.0
0.709252 -0.130689 0.0
0.716926 -0.164679 0.0
0.727621 -0.190618 0.0
0.741000 -0.207752 0.0
0.757039 -0.215557 0.0
0.775955 -0.213697 0.0
0.798053 -0.202127 0.0
0.823530 -0.181274 0.0
0.852300 -0.152228 0.0
0.883886 -0.116822 0.0
0.917392 -0.077560 0.0
0.951526 -0.037397 0.0
0.984153 -0.000003 0.0
1.012942 0.031301 0.0
1.036882 0.055446 0.0
1.055924 0.072507 0.0
1.070207 0.082856 0.0
1.080057 0.087108 0.0
1.085968 0.086052 0.0
1.088565 0.080560 0.0
1.088574 0.071507 0.0
1.086764 0.059772 0.0
1.083915 0.044358 0.0
0.999238 -0.013750 0.0
0.996105 -0.041646 0.0
0.989594 -0.072305 0.0
0.979348 -0.108717 0.0
0.965072 -0.155230 0.0
0.947194 -0.218894 0.0
0.929126 -0.312540 0.0
0.925711 -0.455969 0.0
1.022731 -0.822383 0.0
1.029665 -0.187207 0.0
0.855395 -0.099399 0.0
0.723358 -0.090386 0.0
0.655055 -0.062548 0.0
0.602541 -0.020499 0.0
0.535444 0.027293 0.0
0.450319 0.063033 0.0
0.362242 0.081276 0.0
0.285424 0.081118 0.0
0.232986 0.058986 0.0
0.215842 0.009101 0.0
0.236411 -0.071052 0.0
0.288143 -0.161657 0.0
0.364621 -0.229395 0.0
0.460650 -0.243979 0.0
0.569390 -0.193609 0.0
0.685418 -0.088173 0.0
0.791872 0.033643 0.0
0.873626 0.132885 0.0
0.934182 0.210458 0.0
0.977782 0.271999 0.0
1.005595 0.319666 0.0
1.018563 0.354512 0.0
1.017915 0.377266 0.0
1.005117 0.388615 0.0
0.981671 0.389292 0.0
0.948777 0.380237 0.0
0.906624 0.363241 0.0
0.853534 0.342173 0.0
0.786943 0.322673 0.0
0.708498 0.306791 0.0
0.629541 0.285932 0.0
0.567741 0.244023 0.0
0.534841 0.171969 0.0
0.529373 0.075957 0.0
0.541633 -0.028819 0.0
0.561999 -0.127926 0.0
0.584463 -0.214938 0.0
0.606078 -0.287393 0.0
0.625736 -0.344217 0.0
0.643804 -0.384389 0.0
0.661988 -0.406040 0.0
0.682877 -0.406278 0.0
0.708980 -0.382227 0.0
0.741692 -0.332962 0.0
0.780856 -0.260992 0.0
0.825030 -0.172287 0.0
0.871860 -0.075228 0.0
0.917034 0.019040 0.0
0.955868 0.099649 0.0
0.986097 0.164168 0.0
1.007078 0.212525 0.0
1.018807 0.245739 0.0
1.021672 0.265496 0.0
1.016236 0.273904 0.0
1.003035 0.273440 0.0
0.982443 0.266956 0.0
0.954747 0.257454 0.0
0.920593 0.247213 0.0
0.881642 0.236374 0.0
0.840901 0.222177 0.0
0.802191 0.200140 0.0
0.768897 0.166911 0.0
0.742932 0.122487 0.0
0.724625 0.070059 0.0
0.713359 0.014193 0.0
0.708216 -0.040844 0.0
0.708196 -0.091888 0.0
0.712279 -0.136648 0.0
0.719506 -0.173620 0.0
0.729076 -0.201942 0.0
0.740466 -0.221196 0.0
0.753522 -0.231208 0.0
0.768469 -0.231909 0.0
0.785789 -0.223333 0.0
0.806003 -0.205759 0.0
0.829421 -0.179932 0.0
0.855963 -0.147246 0.0
0.885084 -0.109763 0.0
0.915819 -0.070063 0.0
0.946851 -0.030997 0.0
0.976190 0.004166 0.0
1.001949 0.032881 0.0
1.023417 0.054562 0.0
1.040542 0.069394 0.0
1.053460 0.077803 0.0
1.062487 0.080420 0.0
1.068081 0.078001 0.0
1.070799 0.071340 0.0
1.071256 0.061293 0.0
1.070033 0.046909 0.0
0.998697 -0.011685 0.0
0.993321 -0.035202 0.0
0.981906 -0.060823 0.0
0.962989 -0.091036 0.0
0.933868 -0.129515 0.0
0.889567 -0.182431 0.0
0.820272 -0.261641 0.0
0.707912 -0.391093 0.0
0.319046 -0.697478 0.0
-0.471396 0.239564 0.0
-0.471396 0.000000 0.0
-0.033802 -0.023739 0.0
-0.069567 -0.035190 0.0
-0.055152 -0.009759 0.0
-0.015186 0.043682 0.0
0.011573 0.105010 0.0
0.002610 0.136339 0.0
-0.024453 0.129935 0.0
-0.049000 0.087154 0.0
-0.058413 0.007490 0.0
-0.045799 -0.102624 0.0
-0.008999 -0.218616 0.0
0.051891 -0.309804 0.0
0.137272 -0.344980 0.0
0.242622 -0.306697 0.0
0.360260 -0.208751 0.0
0.485991 -0.077964 0.0
0.602219 0.046510 0.0
0.694579 0.143915 0.0
0.766953 0.222569 0.0
0.821446 0.286790 0.0
0.858468 0.337398 0.0
0.878754 0.374742 0.0
0.883354 0.399337 0.0
0.873295 0.412075 0.0
0.849027 0.414616 0.0
0.809864 0.410178 0.0
0.754724 0.403467 0.0
0.685921 0.396775 0.0
0.613861 0.383195 0.0
0.555300 0.347045 0.0
0.523043 0.276968 0.0
0.517904 0.177062 0.0
0.531871 0.062366 0.0
0.555527 -0.051142 0.0
0.582058 -0.152500 0.0
0.607570 -0.238339 0.0
0.629788 -0.307825 0.0
0.647507 -0.361162 0.0
0.660714 -0.398717 0.0
0.670864 -0.420046 0.0
0.680881 -0.423179 0.0
0.694431 -0.404979 0.0
0.714538 -0.363029 0.0
0.742407 -0.297959 0.0
0.777268 -0.214354 0.0
0.817032 -0.119756 0.0
0.858619 -0.023192 0.0
0.897556 0.064112 0.0
0.930244 0.136787 0.0
0.955268 0.193901 0.0
0.971978 0.235923 0.0
0.980204 0.264222 0.0
0.980016 0.280803 0.0
0.971556 0.288203 0.0
0.954992 0.289349 0.0
0.930747 0.287002 0.0
0.899987 0.282579 0.0
0.865055 0.274891 0.0
0.829331 0.260124 0.0
0.796339 0.233896 0.0
0.768626 0.194162 0.0
0.747282 0.142546 0.0
0.732294 0.083296 0.0
0.723190 0.021326 0.0
0.719416 -0.039059 0.0
0.720314 -0.094552 0.0
0.725026 -0.142780 0.0
0.732563 -0.182253 0.0
0.741951 -0.212268 0.0
0.752409 -0.232719 0.0
0.763520 -0.243854 0.0
0.775337 -0.246027 0.0
0.788349 -0.239548 0.0
0.803309 -0.224716 0.0
0.820932 -0.202016 0.0
0.841614 -0.172386 0.0
0.865255 -0.137385 0.0
0.891241 -0.099162 0.0
0.918548 -0.060237 0.0
0.945862 -0.023246 0.0
0.971401 0.008996 0.0
0.993701 0.034679 0.0
1.012280 0.053573 0.0
1.027076 0.065909 0.0
1.038214 0.072148 0.0
1.045974 0.072919 0.0
1.050746 0.068932 0.0
1.052990 0.061000 0.0
1.053126 0.048288 0.0
0.998312 -0.008694 0.0
0.991355 -0.025859 0.0
0.976536 -0.043932 0.0
0.951756 -0.064230 0.0
0.912963 -0.088406 0.0
0.852300 -0.118577 0.0
0.753243 -0.157144 0.0
0.576809 -0.206796 0.0
0.231166 -0.245090 0.0
0.000000 0.239564 0.0
-0.000000 -0.000000 0.0
0.000000 0.000000 0.0
-0.016213 -0.016613 0.0
-0.046185 -0.012379 0.0
-0.071710 0.031861 0.0
-0.099242 0.117604 0.0
-0.135453 0.168919 0.0
-0.176195 0.165160 0.0
-0.210084 0.110365 0.0
-0.225831 0.009440 0.0
-0.218271 -0.124748 0.0
-0.190867 -0.260697 0.0
-0.149031 -0.370449 0.0
-0.089307 -0.429441 0.0
-0.001578 -0.415315 0.0
0.109362 -0.328711 0.0
0.232796 -0.207169 0.0
0.363326 -0.071043 0.0
0.481440 0.050995 0.0
0.575213 0.149343 0.0
0.648918 0.231816 0.0
0.703944 0.300324 0.0
0.740581 0.354893 0.0
0.759239 0.395929 0.0
0.760145 0.424637 0.0
0.743034 0.443433 0.0
0.707691 0.455867 0.0
0.656548 0.464062 0.0
0.598411 0.463119 0.0
0.548247 0.439075 0.0
0.519513 0.378459 0.0
0.515840 0.281484 0.0
0.531618 0.161907 0.0
0.558799 0.036372 0.0
0.590386 -0.080391 0.0
0.621512 -0.180910 0.0
0.649473 -0.263403 0.0
0.672398 -0.327903 0.0
0.689070 -0.375475 0.0
0.699093 -0.407634 0.0
0.703297 -0.425484 0.0
0.704177 -0.428638 0.0
0.705778 -0.414670 0.0
0.712544 -0.380212 0.0
0.727537 -0.323639 0.0
0.751318 -0.247315 0.0
0.782249 -0.157491 0.0
0.817573 -0.062367 0.0
0.853375 0.028549 0.0
0.885725 0.107311 0.0
0.912305 0.171773 0.0
0.931886 0.221759 0.0
0.943784 0.258262 0.0
0.947621 0.283113 0.0
0.943207 0.298767 0.0
0.930612 0.307945 0.0
0.910465 0.312798 0.0
0.884359 0.313649 0.0
0.854969 0.308145 0.0
0.825537 0.292025 0.0
0.798907 0.261617 0.0
0.776777 0.216284 0.0
0.759718 0.158827 0.0
0.747720 0.094001 0.0
0.740646 0.026798 0.0
0.738317 -0.038428 0.0
0.740328 -0.098092 0.0
0.745943 -0.149566 0.0
0.754172 -0.191233 0.0
0.763932 -0.222435 0.0
0.774225 -0.243302 0.0
0.784336 -0.254492 0.0
0.794008 -0.256877 0.0
0.803540 -0.251243 0.0
0.813710 -0.238151 0.0
0.825529 -0.218023 0.0
0.839883 -0.191415 0.0
0.857221 -0.159333 0.0
0.877403 -0.123381 0.0
0.899750 -0.085673 0.0
0.923208 -0.048582 0.0
0.946478 -0.014477 0.0
0.968010 0.014318 0.0
0.986706 0.036659 0.0
1.002222 0.052512 0.0
1.014478 0.062152 0.0
1.023568 0.066065 0.0
1.029718 0.064864 0.0
1.033241 0.059301 0.0
1.034430 0.048663 0.0
0.998160 -0.005167 0.0
0.990609 -0.014878 0.0
0.974642 -0.024127 0.0
0.948302 -0.032914 0.0
0.908095 -0.040723 0.0
0.848251 -0.045753 0.0
0.760238 -0.042897 0.0
0.633110 -0.017481 0.0
0.475620 0.072968 0.0
0.196484 0.177375 0.0
0.000000 0.000000 0.0
-0.000000 -0.000000 0.0
0.000000 0.000000 0.0
-0.000103 0.000690 0.0
-0.027229 0.070651 0.0
-0.089750 0.168867 0.0
-0.156265 0.220382 0.0
-0.211306 0.209480 0.0
-0.248792 0.137421 0.0
-0.260681 0.010019 0.0
-0.246913 -0.146655 0.0
-0.219963 -0.293144 0.0
-0.190600 -0.409202 0.0
-0.159229 -0.481784 0.0
-0.114528 -0.495401 0.0
-0.038388 -0.435706 0.0
0.065983 -0.327979 0.0
0.184382 -0.199163 0.0
0.307248 -0.061865 0.0
0.415649 0.060028 0.0
0.501253 0.161821 0.0
0.567506 0.249040 0.0
0.614874 0.322172 0.0
0.643161 0.381705 0.0
0.652043 0.429072 0.0
0.641592 0.466559 0.0
0.613988 0.495687 0.0
0.576191 0.513181 0.0
0.540582 0.507745 0.0
0.520071 0.465126 0.0
0.520598 0.380615 0.0
0.539402 0.264196 0.0
0.570087 0.132732 0.0
0.606702 0.001751 0.0
0.644006 -0.114659 0.0
0.678248 -0.212010 0.0
0.707400 -0.289416 0.0
0.730074 -0.347488 0.0
0.745355 -0.387845 0.0
0.752815 -0.412747 0.0
0.752761 -0.424520 0.0
0.746808 -0.424527 0.0
0.738393 -0.411968 0.0
0.732440 -0.383727 0.0
0.733705 -0.336381 0.0
0.744751 -0.269399 0.0
0.765164 -0.186751 0.0
0.792410 -0.095678 0.0
0.822951 -0.004482 0.0
0.852845 0.078099 0.0
0.879014 0.148237 0.0
0.899712 0.205015 0.0
0.913820 0.249000 0.0
0.920598 0.281760 0.0
0.919639 0.305492 0.0
0.911014 0.322440 0.0
0.895565 0.333898 0.0
0.875126 0.339093 0.0
0.852333 0.334886 0.0
0.829920 0.317129 0.0
0.809909 0.283154 0.0