# vtk DataFile Version 3.0
Scalar Field
ASCII
DATASET RECTILINEAR_GRID
DIMENSIONS 100 26 1
X_COORDINATES 100 double
0.050000 0.150000 0.250000 0.350000 0.450000 0.550000 0.650000 0.750000 0.850000 0.950000 1.050000 1.150000 1.250000 1.350000 1.450000 1.550000 1.650000 1.750000 1.850000 1.950000 2.050000 2.150000 2.250000 2.350000 2.450000 2.550000 2.650000 2.750000 2.850000 2.950000 3.050000 3.150000 3.250000 3.350000 3.450000 3.550000 3.650000 3.750000 3.850000 3.950000 4.050000 4.150000 4.250000 4.350000 4.450000 4.550000 4.650000 4.750000 4.850000 4.950000 5.050000 5.150000 5.250000 5.350000 5.450000 5.550000 5.650000 5.750000 5.850000 5.950000 6.050000 6.150000 6.250000 6.350000 6.450000 6.550000 6.650000 6.750000 6.850000 6.950000 7.050000 7.150000 7.250000 7.350000 7.450000 7.550000 7.650000 7.750000 7.850000 7.950000 8.050000 8.150000 8.250000 8.350000 8.450000 8.550000 8.650000 8.750000 8.850000 8.950000 9.050000 9.150000 9.250000 9.350000 9.450000 9.550000 9.650000 9.750000 9.850000 9.950000 
Y_COORDINATES 26 double
0.050000 0.150000 0.250000 0.350000 0.450000 0.550000 0.650000 0.750000 0.850000 0.950000 1.050000 1.150000 1.250000 1.350000 1.450000 1.550000 1.650000 1.750000 1.850000 1.950000 2.050000 2.150000 2.250000 2.350000 2.450000 2.550000 
Z_COORDINATES 1 double
0.0
POINT_DATA 2600
SCALARS Skalarfeld double 1
LOOKUP_TABLE default
0.161167
0.157206
0.148799
0.135554
0.117259
0.093861
0.065546
0.032871
-0.003117
-0.040853
-0.078370
-0.113609
-0.144765
-0.170515
-0.190114
-0.203371
-0.210568
-0.212349
-0.209605
-0.203395
-0.194879
-0.185176
-0.175335
-0.166242
-0.158504
-0.152346
-0.147551
-0.143494
-0.139316
-0.133970
-0.126770
-0.117392
-0.105897
-0.092658
-0.078252
-0.063337
-0.048551
-0.034437
-0.021395
-0.009668
0.000666
0.009673
0.017545
0.024559
0.031043
0.037303
0.043524
0.050066
0.056674
0.062906
0.068145
0.071659
0.072724
0.070785
0.065669
0.057775
0.048137
0.038255
0.029677
0.023575
0.020698
0.020741
0.023029
0.026678
0.030789
0.034601
0.037597
0.039547
0.040499
0.040728
0.040631
0.040601
0.040898
0.041558
0.042611
0.043904
0.045226
0.046515
0.047797
0.049117
0.050486
0.051824
0.052930
0.053485
0.053094
0.051363
0.048009
0.042958
0.036419
0.028872
0.020938
0.013160
0.005833
-0.001172
-0.008477
-0.016969
-0.027706
-0.041794
-0.060384
-0.093676
0.164667
0.161564
0.153376
0.140061
0.121451
0.097437
0.068136
0.034073
-0.003653
-0.043297
-0.082602
-0.119248
-0.151295
-0.177412
-0.196915
-0.209702
-0.216140
-0.216945
-0.213086
-0.205696
-0.195999
-0.185222
-0.174525
-0.164902
-0.157048
-0.151213
-0.147108
-0.143948
-0.140642
-0.136076
-0.129383
-0.120220
-0.108691
-0.095237
-0.080508
-0.065222
-0.050062
-0.035597
-0.022243
-0.010245
0.000316
0.009511
0.017535
0.024671
0.031256
0.037630
0.044091
0.050513
0.056802
0.062590
0.067322
0.070336
0.070969
0.068695
0.063319
0.055166
0.045192
0.034886
0.025958
0.019820
0.016930
0.017097
0.019635
0.023616
0.028097
0.032287
0.035651
0.037955
0.039252
0.039822
0.040059
0.040341
0.040916
0.041873
0.042993
0.044115
0.045196
0.046224
0.047248
0.048327
0.049481
0.050638
0.051599
0.052051
0.051607
0.049885
0.046607
0.041690
0.035308
0.027886
0.020025
0.012348
0.005261
-0.001453
-0.008342
-0.016223
-0.026059
-0.038770
-0.055099
-0.082963
0.173803
0.170909
0.162811
0.149335
0.130173
0.105024
0.073799
0.036893
-0.004519
-0.048317
-0.091505
-0.131137
-0.165004
-0.191802
-0.211019
-0.222755
-0.227569
-0.226338
-0.220138
-0.210269
-0.198124
-0.185103
-0.172591
-0.161835
-0.153746
-0.148656
-0.146139
-0.145060
-0.143881
-0.141080
-0.135501
-0.126804
-0.115200
-0.101287
-0.085865
-0.069776
-0.053783
-0.038508
-0.024393
-0.011694
-0.000495
0.009273
0.017799
0.025353
0.032245
0.038773
0.045183
0.051462
0.057387
0.062618
0.066651
0.068905
0.068796
0.065830
0.059770
0.050850
0.039937
0.028520
0.018461
0.011523
0.008467
0.008833
0.011869
0.016577
0.021940
0.027106
0.031500
0.034859
0.037204
0.038769
0.039879
0.040828
0.041792
0.042807
0.043786
0.044624
0.045335
0.045944
0.046535
0.047192
0.047962
0.048795
0.049507
0.049793
0.049277
0.047585
0.044442
0.039748
0.033639
0.026486
0.018834
0.011267
0.004196
-0.002103
-0.008201
-0.014830
-0.022749
-0.032644
-0.044946
-0.065084
0.188172
0.185362
0.177339
0.163723
0.143916
0.117230
0.083139
0.041697
-0.005901
-0.056921
-0.106703
-0.151097
-0.187591
-0.215114
-0.233547
-0.243368
-0.245447
-0.240879
-0.230917
-0.217100
-0.201012
-0.184336
-0.168814
-0.156162
-0.147735
-0.144069
-0.144505
-0.147223
-0.149743
-0.149828
-0.145952
-0.137836
-0.125926
-0.111116
-0.094470
-0.077025
-0.059674
-0.043105
-0.027795
-0.014012
-0.001847
0.008762
0.017990
0.026085
0.033331
0.040002
0.046313
0.052419
0.057970
0.062589
0.065809
0.067161
0.066169
0.062390
0.055552
0.045780
0.033801
0.021008
0.009307
0.000666
-0.003183
-0.002682
0.000928
0.006596
0.013195
0.019775
0.025674
0.030558
0.034376
0.037274
0.039486
0.041232
0.042652
0.043793
0.044630
0.045124
0.045282
0.045261
0.045292
0.045370
0.045587
0.045951
0.046317
0.046404
0.045847
0.044284
0.041432
0.037171
0.031589
0.024992
0.017857
0.010727
0.004060
-0.001923
-0.007051
-0.012103
-0.017641
-0.024140
-0.031843
-0.043658
0.207613
0.204931
0.197168
0.183688
0.163455
0.135126
0.097330
0.049303
-0.008012
-0.071155
-0.131381
-0.182447
-0.221939
-0.249643
-0.266241
-0.272813
-0.270679
-0.261083
-0.245683
-0.226173
-0.204378
-0.182254
-0.162102
-0.146444
-0.137519
-0.136348
-0.141910
-0.151163
-0.159873
-0.164263
-0.162645
-0.154969
-0.142171
-0.125675
-0.106978
-0.087409
-0.068024
-0.049595
-0.032626
-0.017393
-0.003980
0.007673
0.017737
0.026456
0.034101
0.040924
0.047103
0.052739
0.057844
0.061731
0.063963
0.064242
0.062284
0.057763
0.050420
0.040264
0.027805
0.014198
0.001199
-0.009152
-0.015091
-0.015132
-0.011276
-0.004805
0.003016
0.011096
0.018645
0.025211
0.030634
0.034960
0.038340
0.040940
0.042882
0.044226
0.044978
0.045137
0.044750
0.043962
0.042990
0.042324
0.041862
0.041671
0.041666
0.041592
0.041098
0.039824
0.037477
0.033903
0.029137
0.023410
0.017123
0.010770
0.004821
-0.000400
-0.004737
-0.008130
-0.011249
-0.014384
-0.017636
-0.021703
0.231885
0.229479
0.222405
0.209729
0.189837
0.160377
0.118442
0.061397
-0.011028
-0.095340
-0.171522
-0.230531
-0.272050
-0.298229
-0.311094
-0.312467
-0.304106
-0.287641
-0.264841
-0.237618
-0.208094
-0.178523
-0.151501
-0.131032
-0.121030
-0.123596
-0.137221
-0.156946
-0.175716
-0.186593
-0.187666
-0.179939
-0.165250
-0.145914
-0.124069
-0.101424
-0.079222
-0.058305
-0.039187
-0.022131
-0.007202
0.005678
0.016696
0.026103
0.034168
0.041107
0.047004
0.051744
0.055649
0.058466
0.059298
0.058169
0.055172
0.050203
0.043011
0.033430
0.021663
0.008500
-0.004637
-0.015904
-0.023532
-0.025675
-0.022127
-0.015470
-0.006946
0.002239
0.011153
0.019194
0.026068
0.031707
0.036175
0.039584
0.042036
0.043583
0.044238
0.044013
0.042989
0.041373
0.039486
0.037686
0.036457
0.035703
0.035383
0.035258
0.034985
0.034199
0.032589
0.029962
0.026290
0.021726
0.016589
0.011311
0.006354
0.002115
-0.001153
-0.003244
-0.004169
-0.004319
-0.003682
-0.001210
0.260477
0.258588
0.252903
0.242218
0.224281
0.195387
0.150050
0.081523
-0.014905
-0.139237
-0.237813
-0.302311
-0.341541
-0.362699
-0.369079
-0.362878
-0.346441
-0.321236
-0.289003
-0.251954
-0.212618
-0.173813
-0.137868
-0.109692
-0.096829
-0.103548
-0.127543
-0.161410
-0.194709
-0.216443
-0.220855
-0.212424
-0.194705
-0.171369
-0.145383
-0.118863
-0.093217
-0.069322
-0.047675
-0.028509
-0.011858
0.002384
0.014428
0.024536
0.032967
0.039870
0.045200
0.048717
0.050134
0.050292
0.049215
0.046488
0.042800
0.038148
0.032137
0.024346
0.014640
0.003397
-0.008378
-0.019166
-0.027267
-0.031298
-0.029243
-0.023303
-0.014930
-0.005411
0.004205
0.013180
0.021074
0.027693
0.033001
0.037042
0.039873
0.041521
0.041982
0.041273
0.039515
0.036995
0.034145
0.031433
0.029351
0.028070
0.027534
0.027502
0.027629
0.027536
0.026886
0.025442
0.023108
0.019954
0.016211
0.012244
0.008487
0.005372
0.003266
0.002424
0.003136
0.005417
0.009177
0.016731
0.292435
0.291376
0.288016
0.281049
0.267793
0.243184
0.198074
0.117420
-0.019232
-0.225846
-0.346298
-0.401143
-0.427780
-0.439408
-0.436911
-0.422414
-0.397317
-0.362123
-0.318992
-0.270583
-0.219875
-0.170392
-0.126357
-0.088387
-0.069036
-0.078216
-0.111427
-0.158426
-0.206633
-0.243247
-0.255207
-0.246141
-0.225277
-0.197925
-0.167897
-0.137655
-0.108705
-0.081930
-0.057814
-0.036570
-0.018224
-0.002660
0.010332
0.021005
0.029547
0.035942
0.039908
0.041094
0.039509
0.035791
0.031861
0.028138
0.024850
0.021662
0.017952
0.013075
0.006606
-0.001457
-0.010546
-0.019534
-0.026954
-0.031384
-0.031809
-0.027057
-0.019634
-0.010658
-0.001178
0.007984
0.016268
0.023356
0.029102
0.033463
0.036431
0.037986
0.038096
0.036783
0.034213
0.030762
0.026982
0.023458
0.020654
0.018947
0.018320
0.018538
0.019246
0.020043
0.020556
0.020493
0.019689
0.018131
0.015961
0.013468
0.011044
0.009129
0.008155
0.008499
0.010461
0.014449
0.020496
0.031650
0.326240
0.326325
0.326281
0.325048
0.320189
0.306291
0.271089
0.186594
-0.018177
-0.411515
-0.509376
-0.510089
-0.510446
-0.512448
-0.503884
-0.485389
-0.452972
-0.408516
-0.355213
-0.296299
-0.235030
-0.175505
-0.123254
-0.085197
-0.058765
-0.067807
-0.103171
-0.152988
-0.205563
-0.249053
-0.273687
-0.267840
-0.246232
-0.217237
-0.185377
-0.153316
-0.122598
-0.094131
-0.068437
-0.045784
-0.026258
-0.009804
0.003721
0.014448
0.022322
0.026987
0.027997
0.025379
0.020071
0.013697
0.008044
0.004638
0.002970
0.002297
0.001773
0.000589
-0.001891
-0.005973
-0.011483
-0.017707
-0.023501
-0.027597
-0.029042
-0.026291
-0.020459
-0.012781
-0.004234
0.004344
0.012324
0.019283
0.024971
0.029251
0.032034
0.033241
0.032806
0.030755
0.027305
0.022919
0.018251
0.013978
0.010617
0.008587
0.007999
0.008626
0.010095
0.011969
0.013824
0.015304
0.016171
0.016328
0.015835
0.014902
0.013868
0.013163
0.013251
0.014587
0.017579
0.022589
0.030090
0.043456
0.359811
0.361240
0.365186
0.371268
0.378358
0.383166
0.375806
0.324250
0.084000
-0.755781
-0.695301
-0.573427
-0.551031
-0.552679
-0.552466
-0.535771
-0.500693
-0.451798
-0.393856
-0.330906
-0.266693
-0.205567
-0.153008
-0.114197
-0.098507
-0.102360
-0.125530
-0.161718
-0.202556
-0.238877
-0.261996
-0.266776
-0.248241
-0.221429
-0.191377
-0.160725
-0.130964
-0.103028
-0.077537
-0.054901
-0.035363
-0.019036
-0.005973
0.003676
0.009499
0.010912
0.007757
0.001001
-0.007286
-0.014867
-0.020009
-0.021664
-0.020649
-0.017988
-0.014719
-0.011789
-0.009968
-0.009767
-0.011316
-0.014269
-0.017814
-0.020868
-0.022386
-0.021595
-0.017552
-0.011633
-0.004609
0.002751
0.009802
0.016061
0.021189
0.024961
0.027207
0.027783
0.026589
0.023654
0.019243
0.013899
0.008360
0.003379
-0.000463
-0.002715
-0.003134
-0.001938
0.000469
0.003597
0.006950
0.010097
0.012723
0.014652
0.015864
0.016498
0.016839
0.017291
0.018329
0.020448
0.024126
0.029789
0.037904
0.052273
0.390714
0.393443
0.401302
0.414789
0.434737
0.462171
0.497548
0.536892
0.618295
-0.068743
-0.624353
-0.553404
-0.549854
-0.553375
-0.562157
-0.551720
-0.521718
-0.477952
-0.426199
-0.371558
-0.318897
-0.270528
-0.231074
-0.203636
-0.189910
-0.182097
-0.181308
-0.190915
-0.206875
-0.223902
-0.235909
-0.238328
-0.229244
-0.207608
-0.182615
-0.156545
-0.130659
-0.105839
-0.082797
-0.062118
-0.044263
-0.029592
-0.018454
-0.011353
-0.009003
-0.011903
-0.019467
-0.029608
-0.039501
-0.046884
-0.050071
-0.048818
-0.044211
-0.037542
-0.030057
-0.022831
-0.016722
-0.012344
-0.010008
-0.009634
-0.010705
-0.012356
-0.013611
-0.013686
-0.011540
-0.007550
-0.002362
0.003372
0.009045
0.014150
0.018295
0.021178
0.022557
0.022226
0.020054
0.016076
0.010601
0.004238
-0.002200
-0.007884
-0.012158
-0.014578
-0.014716
-0.012805
-0.009295
-0.004756
0.000225
0.005128
0.009551
0.013244
0.016118
0.018253
0.019883
0.021381
0.023215
0.025903
0.029960
0.035866
0.044059
0.058352
0.416603
0.420301
0.431054
0.449953
0.479107
0.522233
0.585869
0.681268
0.813954
0.850991
0.000000
-0.548293
-0.543181
-0.536292
-0.535696
-0.530914
-0.509468
-0.478350
-0.444875
-0.414066
-0.387686
-0.364809
-0.344058
-0.325149
-0.303209
-0.277490
-0.253062
-0.232734
-0.218678
-0.210440
-0.205148
-0.199389
-0.190695
-0.177706
-0.159481
-0.140025
-0.120189
-0.100669
-0.082176
-0.065424
-0.051082
-0.039767
-0.032150
-0.029079
-0.031408
-0.039214
-0.050944
-0.063593
-0.074024
-0.080156
-0.080422
-0.075321
-0.066355
-0.055140
-0.043156
-0.031619
-0.021443
-0.013261
-0.007440
-0.004040
-0.002752
-0.002905
-0.003615
-0.004028
-0.003461
-0.001204
0.002125
0.006080
0.010141
0.013817
0.016689
0.018401
0.018651
0.017182
0.013837
0.008663
0.002006
-0.005464
-0.012863
-0.019284
-0.023986
-0.026518
-0.026282
-0.023531
-0.018786
-0.012715
-0.006017
0.000679
0.006884
0.012274
0.016704
0.020206
0.022973
0.025351
0.027794
0.030824
0.034972
0.040738
0.048562
0.061938
0.435734
0.439876
0.451892
0.472909
0.504963
0.551137
0.615052
0.698467
0.795871
0.888028
0.804727
0.000000
-0.527244
-0.511307
-0.496095
-0.485302
-0.473460
-0.461359
-0.454367
-0.455493
-0.462656
-0.469491
-0.467869
-0.449698
-0.413651
-0.368157
-0.319350
-0.271954
-0.230707
-0.198112
-0.174290
-0.157564
-0.145354
-0.135211
-0.124804
-0.112467
-0.099677
-0.086751
-0.074264
-0.062967
-0.053665
-0.047207
-0.044581
-0.046913
-0.054963
-0.068111
-0.083819
-0.098455
-0.108821
-0.113093
-0.109457
-0.099740
-0.085864
-0.069792
-0.053247
-0.037571
-0.023707
-0.012254
-0.003538
0.002364
0.005658
0.006871
0.006788
0.006268
0.006061
0.006683
0.008295
0.010535
0.012963
0.015126
0.016596
0.016986
0.015947
0.013185
0.008529
0.002038
-0.005899
-0.014557
-0.022982
-0.030181
-0.035315
-0.037907
-0.037226
-0.033557
-0.027501
-0.019843
-0.011407
-0.002941
0.004968
0.011927
0.017745
0.022419
0.026119
0.029167
0.032004
0.035143
0.039117
0.044425
0.051502
0.063381
0.447314
0.451360
0.463001
0.483015
0.512633
0.553399
0.606796
0.671758
0.735606
0.759696
0.721426
0.609314
0.000000
-0.485443
-0.459578
-0.439254
-0.433399
-0.437594
-0.455800
-0.488508
-0.528242
-0.561829
-0.574335
-0.550143
-0.500284
-0.434978
-0.364113
-0.294976
-0.233105
-0.181912
-0.142820
-0.115507
-0.098099
-0.087728
-0.081382
-0.076186
-0.070318
-0.064275
-0.058368
-0.053317
-0.050019
-0.049543
-0.053171
-0.062156
-0.076872
-0.095793
-0.115480
-0.131880
-0.141829
-0.143330
-0.135181
-0.120425
-0.101451
-0.080579
-0.059740
-0.040362
-0.023376
-0.009305
0.001626
0.009406
0.014231
0.016542
0.017025
0.016492
0.015672
0.015257
0.015512
0.016279
0.017232
0.017968
0.018068
0.017123
0.014756
0.010649
0.004626
-0.003230
-0.012489
-0.022371
-0.031848
-0.039835
-0.045392
-0.047980
-0.046815
-0.042212
-0.034855
-0.025645
-0.015542
-0.005416
0.004044
0.012379
0.019360
0.024964
0.029350
0.032827
0.035824
0.038842
0.042402
0.046986
0.053007
0.062994
0.451526
0.455059
0.465157
0.482242
0.506873
0.539294
0.578294
0.619126
0.648938
0.641990
0.580218
0.497203
0.337468
0.000000
-0.429388
-0.399198
-0.398738
-0.412347
-0.447439
-0.504627
-0.572605
-0.627701
-0.645071
-0.609433
-0.545614
-0.465238
-0.379219
-0.295950
-0.221256
-0.158611
-0.109591
-0.074319
-0.051674
-0.039361
-0.034277
-0.033272
-0.033851
-0.034135
-0.034516
-0.035762
-0.038884
-0.045164
-0.056085
-0.072757
-0.094848
-0.119816
-0.143444
-0.161397
-0.170722
-0.167993
-0.155292
-0.135563
-0.111798
-0.086649
-0.062194
-0.039874
-0.020553
-0.004634
0.007787
0.016810
0.022670
0.025772
0.026719
0.026262
0.025153
0.023992
0.023231
0.022847
0.022599
0.022125
0.021017
0.018854
0.015240
0.009846
0.002506
-0.006669
-0.017204
-0.028261
-0.038742
-0.047471
-0.053405
-0.055912
-0.054257
-0.048775
-0.040222
-0.029609
-0.018020
-0.006447
0.004325
0.013773
0.021638
0.027890
0.032688
0.036338
0.039261
0.041941
0.044879
0.048532
0.053273
0.061077
0.449313
0.452121
0.460039
0.473085
0.491071
0.513114
0.536722
0.556267
0.560883
0.533021
0.455170
0.319143
0.177733
-0.224332
-0.423847
-0.363866
-0.362898
-0.383424
-0.432023
-0.505391
-0.587837
-0.651871
-0.657671
-0.617357
-0.546714
-0.459584
-0.367529
-0.278996
-0.199468
-0.132011
-0.077974
-0.037593
-0.010268
0.005408
0.011650
0.011200
0.006774
0.001758
-0.003865
-0.010914
-0.020484
-0.033983
-0.052857
-0.077728
-0.107319
-0.138103
-0.165233
-0.184116
-0.191748
-0.184898
-0.167653
-0.143485
-0.115778
-0.087380
-0.060403
-0.036214
-0.015545
0.001347
0.014513
0.024168
0.030611
0.034230
0.035547
0.035228
0.033993
0.032459
0.031005
0.029822
0.028705
0.027320
0.025260
0.022097
0.017421
0.010904
0.002400
-0.007944
-0.019606
-0.031692
-0.043036
-0.052382
-0.058604
-0.060939
-0.058818
-0.052579
-0.043032
-0.031275
-0.018497
-0.005796
0.005958
0.016188
0.024612
0.031203
0.036128
0.039699
0.042329
0.044485
0.046639
0.049213
0.052532
0.057995
0.441987
0.443947
0.449375
0.457993
0.469125
0.481297
0.491577
0.494637
0.481702
0.439723
0.351783
0.195575
-0.075728
-0.626397
-0.483829
-0.366246
-0.345620
-0.368606
-0.422706
-0.498210
-0.577228
-0.629471
-0.623233
-0.579570
-0.509450
-0.425084
-0.336776
-0.251967
-0.175342
-0.109367
-0.054963
-0.012223
0.019055
0.039327
0.049605
0.051531
0.047116
0.039653
0.030402
0.018432
0.002760
-0.017895
-0.044607
-0.077218
-0.113460
-0.149012
-0.178611
-0.197522
-0.202669
-0.191531
-0.170435
-0.142999
-0.112764
-0.082602
-0.054533
-0.029764
-0.008855
0.008098
0.021279
0.031006
0.037638
0.041551
0.043187
0.043101
0.041926
0.040255
0.038479
0.036854
0.035220
0.033256
0.030553
0.026672
0.021196
0.013806
0.004379
-0.006896
-0.019445
-0.032320
-0.044300
-0.054069
-0.060438
-0.062511
-0.059968
-0.053141
-0.042869
-0.030314
-0.016741
-0.003328
0.008993
0.019609
0.028229
0.034835
0.039611
0.042874
0.045030
0.046523
0.047791
0.049209
0.051049
0.054116
0.431092
0.432215
0.435227
0.439683
0.444680
0.448563
0.448502
0.439966
0.416196
0.367810
0.282518
0.144682
-0.064538
-0.323044
-0.356033
-0.337015
-0.338559
-0.365576
-0.415037
-0.478528
-0.537575
-0.561108
-0.549858
-0.509013
-0.447168
-0.373675
-0.296633
-0.222049
-0.153798
-0.093970
-0.043342
-0.001868
0.030830
0.054986
0.070455
0.077553
0.077424
0.072616
0.062319
0.046922
0.026221
-0.000525
-0.033714
-0.072303
-0.113182
-0.151509
-0.181869
-0.199834
-0.199993
-0.186175
-0.162792
-0.133862
-0.102953
-0.072802
-0.045223
-0.021212
-0.001145
0.015023
0.027572
0.036890
0.043372
0.047391
0.049317
0.049582
0.048691
0.047154
0.045391
0.043665
0.041848
0.039633
0.036609
0.032322
0.026350
0.018384
0.008333
-0.003571
-0.016703
-0.030067
-0.042398
-0.052342
-0.058683
-0.060412
-0.057496
-0.050262
-0.039566
-0.026606
-0.012696
0.000944
0.013353
0.023910
0.032337
0.038637
0.043012
0.045783
0.047341
0.048101
0.048454
0.048723
0.049114
0.049843
0.418153
0.418535
0.419433
0.420349
0.420343
0.417845
0.410411
0.394470
0.365144
0.316271
0.240793
0.132213
-0.009883
-0.162325
-0.240211
-0.275867
-0.304294
-0.339261
-0.382819
-0.428847
-0.463243
-0.474082
-0.461890
-0.428319
-0.378683
-0.319399
-0.256401
-0.194350
-0.136440
-0.084548
-0.039522
-0.001524
0.029637
0.054187
0.072239
0.083829
0.092474
0.092603
0.083716
0.067358
0.044104
0.013855
-0.022983
-0.064519
-0.107014
-0.145330
-0.173992
-0.188577
-0.185076
-0.169503
-0.145584
-0.117174
-0.087571
-0.059197
-0.033581
-0.011495
0.006839
0.021557
0.032986
0.041533
0.047601
0.051550
0.053704
0.054394
0.053990
0.052889
0.051484
0.049978
0.048288
0.046132
0.043094
0.038713
0.032558
0.024333
0.013977
0.001769
-0.011620
-0.025151
-0.037527
-0.047382
-0.053498
-0.054817
-0.051564
-0.044079
-0.033241
-0.020271
-0.006502
0.006843
0.018821
0.028847
0.036685
0.042375
0.046138
0.048293
0.049205
0.049242
0.048743
0.047964
0.047038
0.045617
0.404523
0.404296
0.403479
0.401598
0.397790
0.390705
0.378386
0.358182
0.326778
0.280432
0.215636
0.130602
0.028622
-0.076887
-0.155491
-0.209876
-0.252538
-0.291862
-0.330084
-0.363891
-0.385894
-0.392365
-0.382183
-0.356335
-0.318112
-0.271801
-0.221638
-0.171171
-0.123012
-0.078845
-0.039567
-0.005512
0.023335
0.047145
0.066116
0.081442
0.091802
0.094634
0.089102
0.075095
0.052776
0.022607
-0.014178
-0.054977
-0.095651
-0.130994
-0.155789
-0.165516
-0.159679
-0.143902
-0.121361
-0.095391
-0.068797
-0.043596
-0.021018
-0.001650
0.014385
0.027254
0.037279
0.044843
0.050328
0.054072
0.056366
0.057473
0.057659
0.057196
0.056467
0.055482
0.054209
0.052393
0.049626
0.045439
0.039398
0.031217
0.020864
0.008662
-0.004674
-0.018068
-0.030204
-0.039715
-0.045411
-0.046254
-0.042663
-0.035030
-0.024276
-0.011651
0.001514
0.014037
0.025053
0.034070
0.040936
0.045749
0.048748
0.050237
0.050535
0.049952
0.048756
0.047133
0.045134
0.041904
0.391313
0.390613
0.388486
0.384516
0.377979
0.367784
0.352444
0.330080
0.298531
0.255650
0.199879
0.131248
0.052926
-0.027446
-0.097355
-0.154110
-0.200896
-0.241112
-0.275869
-0.303598
-0.321022
-0.326383
-0.318894
-0.299375
-0.270035
-0.233831
-0.193828
-0.152740
-0.112690
-0.075152
-0.041011
-0.010690
0.015713
0.038289
0.057227
0.072829
0.083424
0.087683
0.084564
0.073418
0.054010
0.026795
-0.006678
-0.043479
-0.079368
-0.109342
-0.128715
-0.133614
-0.127781
-0.113668
-0.094124
-0.071916
-0.049330
-0.028003
-0.008929
0.007421
0.020962
0.031851
0.040378
0.046887
0.051718
0.055182
0.057541
0.059013
0.059799
0.060098
0.060183
0.059925
0.059297
0.058057
0.055801
0.052055
0.046383
0.038507
0.028425
0.016494
0.003473
-0.009532
-0.021187
-0.030135
-0.035222
-0.035511
-0.031531
-0.023777
-0.013254
-0.001263
0.010880
0.022080
0.031618
0.039167
0.044716
0.048440
0.050593
0.051443
0.051242
0.050221
0.048570
0.046402
0.043691
0.039173
0.379382
0.378331
0.375243
0.369786
0.361379
0.349183
0.332104
0.308845
0.278038
0.238498
0.189639
0.132057
0.068204
0.002659
-0.058492
-0.112239
-0.158426
-0.197744
-0.230312
-0.255233
-0.271048
-0.276543
-0.271504
-0.256709
-0.233801
-0.204958
-0.172489
-0.138522
-0.104798
-0.072592
-0.042735
-0.015679
0.008396
0.029482
0.047646
0.062499
0.072994
0.078107
0.076841
0.068430
0.052556
0.029661
0.001309
-0.029641
-0.059233
-0.083049
-0.097208
-0.100639
-0.095757
-0.084237
-0.068297
-0.050138
-0.031609
-0.014060
0.001661
0.015144
0.026308
0.035293
0.042364
0.047834
0.052015
0.055184
0.057574
0.059365
0.060696
0.061845
0.062682
0.063217
0.063360
0.062847
0.061267
0.058139
0.053025
0.045653
0.036040
0.024578
0.012060
-0.000372
-0.011370
-0.019578
-0.023874
-0.023489
-0.019019
-0.011107
-0.000890
0.010257
0.021032
0.030469
0.038065
0.043741
0.047687
0.050183
0.051488
0.051800
0.051278
0.050057
0.048250
0.045903
0.042936
0.037851
0.369370
0.368058
0.364282
0.357800
0.348166
0.334744
0.316741
0.293270
0.263472
0.226714
0.182870
0.132647
0.077881
0.021533
-0.032847
-0.082715
-0.126837
-0.164663
-0.195688
-0.219174
-0.234335
-0.240319
-0.237219
-0.225794
-0.207389
-0.183725
-0.156646
-0.127882
-0.098893
-0.070791
-0.044332
-0.019970
0.002067
0.021683
0.038808
0.052912
0.063282
0.069082
0.069424
0.063577
0.051233
0.032823
0.009807
-0.015250
-0.038960
-0.057793
-0.068967
-0.072327
-0.068816
-0.059790
-0.047009
-0.032257
-0.017081
-0.002650
0.010278
0.021325
0.030417
0.037695
0.043428
0.047931
0.051505
0.054409
0.056843
0.058950
0.060851
0.062625
0.064171
0.065476
0.066401
0.066656
0.065813
0.063385
0.058925
0.052166
0.043136
0.032254
0.020345
0.008585
-0.001647
-0.008986
-0.012327
-0.011130
-0.006063
0.002066
0.011961
0.022148
0.031334
0.038699
0.044009
0.047512
0.049666
0.050884
0.051409
0.051338
0.050703
0.049529
0.047859
0.045710
0.042994
0.038254
0.361757
0.360220
0.355937
0.348762
0.338351
0.324218
0.305772
0.282396
0.253540
0.218878
0.178486
0.133048
0.083981
0.033387
-0.016289
-0.062917
-0.104961
-0.141352
-0.171241
-0.193882
-0.208707
-0.215156
-0.213450
-0.204326
-0.188958
-0.168806
-0.145429
-0.120303
-0.094694
-0.069586
-0.045673
-0.023391
-0.002985
0.015402
0.031628
0.045166
0.055481
0.061867
0.063536
0.059811
0.050399
0.035689
0.016986
-0.003488
-0.022910
-0.038483
-0.048246
-0.051645
-0.049156
-0.041892
-0.031319
-0.018961
-0.006175
0.005988
0.016830
0.025999
0.033435
0.039296
0.043875
0.047515
0.050544
0.053223
0.055733
0.058164
0.060542
0.062828
0.065004
0.066994
0.068623
0.069577
0.069423
0.067664
0.063848
0.057704
0.049267
0.038973
0.027680
0.016604
0.007164
0.000742
-0.001459
0.000516
0.006184
0.014544
0.024142
0.033399
0.041009
0.046271
0.049222
0.050466
0.050784
0.050757
0.050612
0.050316
0.049749
0.048808
0.047489
0.045827
0.043816
0.040466
0.356953
0.355095
0.350388
0.342748
0.331875
0.317360
0.298736
0.275540
0.247397
0.214135
0.175917
0.133374
0.087677
0.040483
-0.006269
-0.050705
-0.091227
-0.126559
-0.155683
-0.177810
-0.192421
-0.199193
-0.198387
-0.190711
-0.177243
-0.159292
-0.138252
-0.115446
-0.092021
-0.068880
-0.046671
-0.025817
-0.006570
0.010920
0.026515
0.039707
0.050057
0.056923
0.059561
0.057318
0.049890
0.037619
0.021685
0.004077
-0.012743
-0.026390
-0.035229
-0.038541
-0.036619
-0.030400
-0.021167
-0.010286
0.001007
0.011734
0.021239
0.029185
0.035519
0.040401
0.044139
0.047105
0.049664
0.052119
0.054700
0.057366
0.060087
0.062836
0.065546
0.068099
0.070294
0.071808
0.072204
0.070984
0.067693
0.062051
0.054096
0.044275
0.033483
0.022983
0.014243
0.008721
0.007320
0.009895
0.015990
0.024494
0.033859
0.042437
0.048884
0.052540
0.053600
0.052941
0.051642
0.050484
0.049733
0.049267
0.048840
0.048176
0.047253
0.046166
0.045086
0.044073
0.355564
0.352786
0.347673
0.339761
0.328671
0.314004
0.295345
0.272302
0.244573
0.212047
0.174911
0.133758
0.089638
0.044019
-0.001365
-0.044748
-0.084524
-0.119339
-0.148107
-0.170030
-0.184619
-0.191587
-0.191244
-0.184289
-0.171747
-0.154854
-0.134922
-0.113204
-0.090789
-0.068545
-0.047108
-0.026901
-0.008196
0.008804
0.023880
0.036912
0.047380
0.054617
0.057858
0.056419
0.049964
0.038802
0.024077
0.007701
-0.008004
-0.020902
-0.029431
-0.032713
-0.031064
-0.025343
-0.016741
-0.006537
0.004093
0.014210
0.023176
0.030656
0.036589
0.041127
0.044567
0.047280
0.049632
0.051921
0.054301
0.056965
0.059922
0.063006
0.066088
0.069024
0.071596
0.073475
0.074223
0.073336
0.070347
0.064967
0.057227
0.047589
0.036981
0.026724
0.018309
0.013046
0.011790
0.014551
0.020741
0.029218
0.038444
0.046779
0.052876
0.056052
0.056483
0.055072
0.052985
0.051123
0.049846
0.049057
0.048447
0.047870
0.047194
0.046497
0.046092
0.047605
