# vtk DataFile Version 3.0
Vector Field
ASCII
DATASET RECTILINEAR_GRID
DIMENSIONS 100 26 1
X_COORDINATES 100 double
0.050000 0.150000 0.250000 0.350000 0.450000 0.550000 0.650000 0.750000 0.850000 0.950000 1.050000 1.150000 1.250000 1.350000 1.450000 1.550000 1.650000 1.750000 1.850000 1.950000 2.050000 2.150000 2.250000 2.350000 2.450000 2.550000 2.650000 2.750000 2.850000 2.950000 3.050000 3.150000 3.250000 3.350000 3.450000 3.550000 3.650000 3.750000 3.850000 3.950000 4.050000 4.150000 4.250000 4.350000 4.450000 4.550000 4.650000 4.750000 4.850000 4.950000 5.050000 5.150000 5.250000 5.350000 5.450000 5.550000 5.650000 5.750000 5.850000 5.950000 6.050000 6.150000 6.250000 6.350000 6.450000 6.550000 6.650000 6.750000 6.850000 6.950000 7.050000 7.150000 7.250000 7.350000 7.450000 7.550000 7.650000 7.750000 7.850000 7.950000 8.050000 8.150000 8.250000 8.350000 8.450000 8.550000 8.650000 8.750000 8.850000 8.950000 9.050000 9.150000 9.250000 9.350000 9.450000 9.550000 9.650000 9.750000 9.850000 9.950000 
Y_COORDINATES 26 double
0.050000 0.150000 0.250000 0.350000 0.450000 0.550000 0.650000 0.750000 0.850000 0.950000 1.050000 1.150000 1.250000 1.350000 1.450000 1.550000 1.650000 1.750000 1.850000 1.950000 2.050000 2.150000 2.250000 2.350000 2.450000 2.550000 
Z_COORDINATES 1 double
0.0
POINT_DATA 2600
VECTORS Vektorfeld double
1.000909 -0.000909 0.0
1.005018 -0.003199 0.0
1.013867 -0.005650 0.0
1.027650 -0.008133 0.0
1.046325 -0.010542 0.0
1.069606 -0.012740 0.0
1.096895 -0.014548 0.0
1.127202 -0.015759 0.0
1.159133 -0.016173 0.0
1.190973 -0.015667 0.0
1.220894 -0.014254 0.0
1.247235 -0.012087 0.0
1.268708 -0.009387 0.0
1.284487 -0.006391 0.0
1.294196 -0.003318 0.0
1.297873 -0.000359 0.0
1.295905 0.002327 0.0
1.288960 0.004618 0.0
1.277932 0.006410 0.0
1.263899 0.007622 0.0
1.248080 0.008197 0.0
1.231781 0.008103 0.0
1.216340 0.007338 0.0
1.203066 0.005935 0.0
1.193171 0.003959 0.0
1.187700 0.001512 0.0
1.187418 -0.001230 0.0
1.192600 -0.003952 0.0
1.202854 -0.006302 0.0
1.217058 -0.007901 0.0
1.233379 -0.008420 0.0
1.249480 -0.007681 0.0
1.262895 -0.005733 0.0
1.271495 -0.002867 0.0
1.273837 0.000524 0.0
1.269171 0.004141 0.0
1.257342 0.007687 0.0
1.238723 0.010932 0.0
1.214070 0.013720 0.0
1.184385 0.015965 0.0
1.150792 0.017628 0.0
1.114459 0.018705 0.0
1.076544 0.019210 0.0
1.038173 0.019161 0.0
1.000437 0.018575 0.0
0.964400 0.017461 0.0
0.931123 0.015816 0.0
0.901685 0.013621 0.0
0.877217 0.010847 0.0
0.858894 0.007475 0.0
0.847862 0.003557 0.0
0.844956 -0.000650 0.0
0.850322 -0.004716 0.0
0.863561 -0.008522 0.0
0.884123 -0.012040 0.0
0.911401 -0.015238 0.0
0.944690 -0.018052 0.0
0.983102 -0.020360 0.0
1.025423 -0.021961 0.0
1.069944 -0.022561 0.0
1.114324 -0.021819 0.0
1.155588 -0.019444 0.0
1.190377 -0.015345 0.0
1.215528 -0.009807 0.0
1.228892 -0.003557 0.0
1.229829 0.002620 0.0
1.218816 0.008394 0.0
1.196888 0.013535 0.0
1.165534 0.017820 0.0
1.126639 0.021075 0.0
1.082383 0.023181 0.0
1.035130 0.024072 0.0
0.987340 0.023718 0.0
0.941493 0.022129 0.0
0.899979 0.019385 0.0
0.864920 0.015674 0.0
0.837922 0.011325 0.0
0.819814 0.006783 0.0
0.810484 0.002546 0.0
0.808821 -0.000883 0.0
0.812937 -0.003233 0.0
0.820932 -0.004762 0.0
0.831472 -0.005778 0.0
0.843801 -0.006551 0.0
0.857648 -0.007295 0.0
0.873103 -0.008160 0.0
0.890487 -0.009225 0.0
0.910210 -0.010497 0.0
0.932614 -0.011907 0.0
0.957841 -0.013319 0.0
0.985711 -0.014551 0.0
1.015658 -0.015395 0.0
1.046698 -0.015645 0.0
1.077460 -0.015117 0.0
1.106272 -0.013695 0.0
1.131345 -0.011378 0.0
1.151090 -0.008367 0.0
1.164590 -0.005133 0.0
1.172060 -0.002337 0.0
1.177312 -0.002915 0.0
1.001461 -0.003279 0.0
1.006984 -0.010461 0.0
1.017671 -0.017925 0.0
1.033478 -0.025449 0.0
1.054347 -0.032769 0.0
1.080047 -0.039494 0.0
1.110044 -0.045079 0.0
1.143372 -0.048863 0.0
1.178569 -0.050198 0.0
1.213729 -0.048642 0.0
1.246780 -0.044251 0.0
1.275887 -0.037538 0.0
1.299711 -0.029233 0.0
1.317464 -0.020076 0.0
1.328843 -0.010721 0.0
1.333936 -0.001726 0.0
1.333149 0.006449 0.0
1.327171 0.013419 0.0
1.316938 0.018870 0.0
1.303576 0.022557 0.0
1.288355 0.024304 0.0
1.272632 0.024017 0.0
1.257805 0.021692 0.0
1.245241 0.017419 0.0
1.236205 0.011407 0.0
1.231743 0.003997 0.0
1.232585 -0.004275 0.0
1.239106 -0.012609 0.0
1.251165 -0.019959 0.0
1.267849 -0.025130 0.0
1.287368 -0.027032 0.0
1.307229 -0.025031 0.0
1.324654 -0.019221 0.0
1.337102 -0.010426 0.0
1.342701 0.000142 0.0
1.340535 0.011356 0.0
1.330578 0.022259 0.0
1.313400 0.032157 0.0
1.289945 0.040604 0.0
1.261353 0.047358 0.0
1.228847 0.052333 0.0
1.193650 0.055530 0.0
1.156950 0.057001 0.0
1.119881 0.056810 0.0
1.083531 0.055012 0.0
1.048947 0.051645 0.0
1.017133 0.046724 0.0
0.989022 0.040261 0.0
0.965406 0.032292 0.0
0.946829 0.022931 0.0
0.933526 0.012436 0.0
0.925617 0.001286 0.0
0.923493 -0.009896 0.0
0.927705 -0.020793 0.0
0.938564 -0.031190 0.0
0.956080 -0.040881 0.0
0.980032 -0.049651 0.0
1.010048 -0.057190 0.0
1.045560 -0.062964 0.0
1.085637 -0.066155 0.0
1.128774 -0.065742 0.0
1.172742 -0.060753 0.0
1.214562 -0.050644 0.0
1.250647 -0.035744 0.0
1.277194 -0.017531 0.0
1.291189 0.001662 0.0
1.291794 0.019759 0.0
1.280075 0.035817 0.0
1.257791 0.049177 0.0
1.227055 0.059348 0.0
1.190198 0.066020 0.0
1.149646 0.069039 0.0
1.107800 0.068387 0.0
1.066917 0.064189 0.0
1.028972 0.056784 0.0
0.995481 0.046825 0.0
0.967325 0.035327 0.0
0.944670 0.023545 0.0
0.927073 0.012712 0.0
0.913922 0.003766 0.0
0.904826 -0.002902 0.0
0.899307 -0.007570 0.0
0.896653 -0.010857 0.0
0.896321 -0.013469 0.0
0.898115 -0.016018 0.0
0.902201 -0.018977 0.0
0.909028 -0.022619 0.0
0.919182 -0.026980 0.0
0.933199 -0.031846 0.0
0.951385 -0.036793 0.0
0.973699 -0.041262 0.0
0.999716 -0.044648 0.0
1.028651 -0.046368 0.0
1.059424 -0.045930 0.0
1.090740 -0.043010 0.0
1.121162 -0.037558 0.0
1.149187 -0.029958 0.0
1.173370 -0.021223 0.0
1.192589 -0.012936 0.0
1.206205 -0.011184 0.0
1.001353 -0.006093 0.0
1.006720 -0.018537 0.0
1.017431 -0.031246 0.0
1.033571 -0.044075 0.0
1.055243 -0.056683 0.0
1.082417 -0.068454 0.0
1.114746 -0.078444 0.0
1.151331 -0.085411 0.0
1.190543 -0.088059 0.0
1.229945 -0.085343 0.0
1.266757 -0.077411 0.0
1.298663 -0.065390 0.0
1.324184 -0.050727 0.0
1.342610 -0.034760 0.0
1.353796 -0.018601 0.0
1.358009 -0.003152 0.0
1.355835 0.010837 0.0
1.348100 0.022744 0.0
1.335825 0.032052 0.0
1.320215 0.038347 0.0
1.302613 0.041337 0.0
1.284461 0.040859 0.0
1.267239 0.036899 0.0
1.252415 0.029599 0.0
1.241400 0.019279 0.0
1.235507 0.006479 0.0
1.235884 -0.007976 0.0
1.243298 -0.022842 0.0
1.257818 -0.036305 0.0
1.278477 -0.046127 0.0
1.303076 -0.050154 0.0
1.328353 -0.047048 0.0
1.350607 -0.036883 0.0
1.366614 -0.021220 0.0
1.374430 -0.002480 0.0
1.373490 0.017085 0.0
1.364130 0.035846 0.0
1.347214 0.052664 0.0
1.323909 0.066857 0.0
1.295509 0.078097 0.0
1.263304 0.086305 0.0
1.228517 0.091541 0.0
1.192276 0.093932 0.0
1.155609 0.093615 0.0
1.119451 0.090715 0.0
1.084647 0.085331 0.0
1.051945 0.077556 0.0
1.021982 0.067504 0.0
0.995294 0.055353 0.0
0.972361 0.041379 0.0
0.953697 0.025954 0.0
0.939880 0.009494 0.0
0.931441 -0.007541 0.0
0.928672 -0.024589 0.0
0.931570 -0.041152 0.0
0.940031 -0.056895 0.0
0.954095 -0.071652 0.0
0.974048 -0.085157 0.0
1.000239 -0.096699 0.0
1.032716 -0.104974 0.0
1.070890 -0.108235 0.0
1.113335 -0.104674 0.0
1.157722 -0.092930 0.0
1.200844 -0.072665 0.0
1.238761 -0.045074 0.0
1.267210 -0.013239 0.0
1.282977 0.018287 0.0
1.285556 0.046430 0.0
1.276401 0.070002 0.0
1.257465 0.088195 0.0
1.230951 0.100544 0.0
1.199130 0.106887 0.0
1.164187 0.107328 0.0
1.128074 0.102245 0.0
1.092387 0.092360 0.0
1.058309 0.078819 0.0
1.026629 0.063167 0.0
0.997855 0.047134 0.0
0.972310 0.032265 0.0
0.950116 0.019558 0.0
0.931134 0.009385 0.0
0.915110 0.001687 0.0
0.901783 -0.004133 0.0
0.890938 -0.009017 0.0
0.882650 -0.013977 0.0
0.877392 -0.019846 0.0
0.875902 -0.027087 0.0
0.878952 -0.035716 0.0
0.887104 -0.045278 0.0
0.900533 -0.054976 0.0
0.918990 -0.063851 0.0
0.941857 -0.070943 0.0
0.968246 -0.075397 0.0
0.997100 -0.076529 0.0
1.027266 -0.073894 0.0
1.057554 -0.067383 0.0
1.086766 -0.057371 0.0
1.113704 -0.044930 0.0
1.137164 -0.031908 0.0
1.154867 -0.023531 0.0
1.001310 -0.008757 0.0
1.006584 -0.026515 0.0
1.017288 -0.044682 0.0
1.033731 -0.063223 0.0
1.056325 -0.081801 0.0
1.085438 -0.099624 0.0
1.121132 -0.115299 0.0
1.162754 -0.126763 0.0
1.208557 -0.131722 0.0
1.255060 -0.127587 0.0
1.297926 -0.114845 0.0
1.334005 -0.095942 0.0
1.361794 -0.073486 0.0
1.380895 -0.049530 0.0
1.391496 -0.025618 0.0
1.394134 -0.002987 0.0
1.389596 0.017383 0.0
1.378846 0.034683 0.0
1.363037 0.048197 0.0
1.343514 0.057335 0.0
1.321788 0.061676 0.0
1.299476 0.060984 0.0
1.278245 0.055227 0.0
1.259759 0.044581 0.0
1.245635 0.029436 0.0
1.237445 0.010405 0.0
1.236704 -0.011537 0.0
1.244644 -0.034636 0.0
1.261747 -0.056134 0.0
1.287189 -0.072400 0.0
1.318483 -0.079775 0.0
1.351570 -0.075792 0.0
1.381464 -0.060287 0.0
1.403474 -0.035834 0.0
1.414685 -0.006893 0.0
1.414587 0.022537 0.0
1.404215 0.050125 0.0
1.385157 0.074360 0.0
1.359186 0.094436 0.0
1.328034 0.110072 0.0
1.293252 0.121318 0.0
1.256174 0.128393 0.0
1.217922 0.131573 0.0
1.179434 0.131128 0.0
1.141500 0.127294 0.0
1.104783 0.120272 0.0
1.069850 0.110250 0.0
1.037197 0.097424 0.0
1.007304 0.082014 0.0
0.980674 0.064282 0.0
0.957811 0.044578 0.0
0.939071 0.023427 0.0
0.924481 0.001555 0.0
0.913776 -0.020211 0.0
0.906697 -0.041351 0.0
0.903419 -0.061878 0.0
0.904846 -0.082160 0.0
0.912467 -0.102223 0.0
0.927735 -0.121092 0.0
0.951411 -0.136734 0.0
0.983256 -0.146495 0.0
1.022087 -0.147691 0.0
1.065957 -0.138170 0.0
1.112262 -0.116852 0.0
1.157743 -0.084284 0.0
1.198431 -0.043166 0.0
1.229665 0.001213 0.0
1.248249 0.042341 0.0
1.254123 0.077371 0.0
1.248826 0.105058 0.0
1.234276 0.124745 0.0
1.212518 0.136265 0.0
1.185538 0.139873 0.0
1.155122 0.136230 0.0
1.122768 0.126415 0.0
1.089682 0.111928 0.0
1.056835 0.094586 0.0
1.025021 0.076303 0.0
0.994868 0.058795 0.0
0.966766 0.043324 0.0
0.940830 0.030535 0.0
0.916999 0.020390 0.0
0.895284 0.012207 0.0
0.875987 0.004786 0.0
0.859762 -0.003267 0.0
0.847548 -0.013084 0.0
0.840358 -0.025169 0.0
0.838957 -0.039284 0.0
0.843642 -0.054546 0.0
0.854210 -0.069706 0.0
0.870079 -0.083447 0.0
0.890430 -0.094564 0.0
0.914319 -0.102054 0.0
0.940747 -0.105154 0.0
0.968694 -0.103382 0.0
0.997134 -0.096622 0.0
1.025027 -0.085237 0.0
1.051272 -0.070247 0.0
1.074639 -0.053419 0.0
1.092863 -0.037949 0.0
1.001246 -0.011313 0.0
1.006309 -0.034296 0.0
1.016735 -0.058030 0.0
1.033121 -0.082704 0.0
1.056335 -0.108129 0.0
1.087401 -0.133475 0.0
1.127195 -0.156936 0.0
1.175732 -0.175284 0.0
1.231682 -0.184954 0.0
1.289358 -0.178535 0.0
1.340815 -0.158219 0.0
1.381834 -0.129666 0.0
1.411624 -0.097340 0.0
1.430760 -0.063913 0.0
1.440022 -0.031098 0.0
1.440259 -0.000382 0.0
1.432410 0.027165 0.0
1.417507 0.050554 0.0
1.396818 0.068825 0.0
1.371864 0.081183 0.0
1.344363 0.087055 0.0
1.316160 0.086121 0.0
1.289157 0.078324 0.0
1.265244 0.063883 0.0
1.246223 0.043279 0.0
1.233779 0.017196 0.0
1.229609 -0.013417 0.0
1.235387 -0.046475 0.0
1.252165 -0.078176 0.0
1.279578 -0.103214 0.0
1.315472 -0.116148 0.0
1.355917 -0.112950 0.0
1.395359 -0.092464 0.0
1.427301 -0.057608 0.0
1.446252 -0.015280 0.0
1.450325 0.026950 0.0
1.441025 0.065384 0.0
1.420955 0.098229 0.0
1.392753 0.124741 0.0
1.358774 0.144898 0.0
1.320976 0.159071 0.0
1.280911 0.167781 0.0
1.239791 0.171557 0.0
1.198551 0.170871 0.0
1.157923 0.166114 0.0
1.118484 0.157608 0.0
1.080712 0.145620 0.0
1.045039 0.130381 0.0
1.011884 0.112106 0.0
0.981626 0.091078 0.0
0.954452 0.067818 0.0
0.930142 0.043237 0.0
0.908001 0.018476 0.0
0.887231 -0.005657 0.0
0.867806 -0.029401 0.0
0.851155 -0.053899 0.0
0.839971 -0.080382 0.0
0.837169 -0.108820 0.0
0.844616 -0.137211 0.0
0.862575 -0.162250 0.0
0.890073 -0.180321 0.0
0.925522 -0.188144 0.0
0.967088 -0.183152 0.0
1.012757 -0.163844 0.0
1.060214 -0.130230 0.0
1.106642 -0.084337 0.0
1.148441 -0.030649 0.0
1.180957 0.023104 0.0
1.201443 0.070249 0.0
1.210275 0.108645 0.0
1.208706 0.137278 0.0
1.198325 0.155872 0.0
1.180813 0.164759 0.0
1.157779 0.164796 0.0
1.130670 0.157312 0.0
1.100753 0.144033 0.0
1.069129 0.126953 0.0
1.036730 0.108148 0.0
1.004290 0.089543 0.0
0.972310 0.072659 0.0
0.941117 0.058330 0.0
0.911065 0.046479 0.0
0.882786 0.036113 0.0
0.857323 0.025640 0.0
0.835988 0.013439 0.0
0.819977 -0.001565 0.0
0.810079 -0.019600 0.0
0.806612 -0.039987 0.0
0.809430 -0.061346 0.0
0.818007 -0.082050 0.0
0.831594 -0.100558 0.0
0.849349 -0.115558 0.0
0.870403 -0.126003 0.0
0.893883 -0.131113 0.0
0.918914 -0.130401 0.0
0.944607 -0.123735 0.0
0.970034 -0.111442 0.0
0.994174 -0.094428 0.0
1.015848 -0.074278 0.0
1.033145 -0.052610 0.0
1.001114 -0.013673 0.0
1.005674 -0.041559 0.0
1.015226 -0.070744 0.0
1.030673 -0.101821 0.0
1.053457 -0.135010 0.0
1.085570 -0.169773 0.0
1.129338 -0.204199 0.0
1.186358 -0.233577 0.0
1.257790 -0.254041 0.0
1.332403 -0.241736 0.0
1.393548 -0.207620 0.0
1.437343 -0.165078 0.0
1.466351 -0.120726 0.0
1.483491 -0.076804 0.0
1.490275 -0.034253 0.0
1.487450 0.005361 0.0
1.475680 0.041041 0.0
1.455808 0.071453 0.0
1.429150 0.095272 0.0
1.397415 0.111426 0.0
1.362559 0.119169 0.0
1.326681 0.118088 0.0
1.291931 0.108109 0.0
1.260427 0.089517 0.0
1.234106 0.062987 0.0
1.214497 0.029541 0.0
1.202709 -0.009804 0.0
1.200237 -0.053395 0.0
1.208746 -0.096543 0.0
1.228825 -0.132339 0.0
1.259903 -0.153995 0.0
1.300302 -0.155948 0.0
1.346334 -0.134941 0.0
1.391279 -0.092018 0.0
1.425970 -0.034513 0.0
1.443281 0.024799 0.0
1.442863 0.077253 0.0
1.428455 0.120837 0.0
1.403666 0.155123 0.0
1.371542 0.180618 0.0
1.334479 0.198212 0.0
1.294320 0.208865 0.0
1.252461 0.213453 0.0
1.209966 0.212710 0.0
1.167648 0.207222 0.0
1.126140 0.197447 0.0
1.085955 0.183737 0.0
1.047530 0.166362 0.0
1.011219 0.145591 0.0
0.977161 0.121909 0.0
0.945016 0.096305 0.0
0.913790 0.070286 0.0
0.882176 0.045182 0.0
0.849648 0.020935 0.0
0.817648 -0.004568 0.0
0.789983 -0.034417 0.0
0.771381 -0.070077 0.0
0.764866 -0.109807 0.0
0.770646 -0.149452 0.0
0.787110 -0.184433 0.0
0.812248 -0.210775 0.0
0.844359 -0.225250 0.0
0.882091 -0.225345 0.0
0.924206 -0.209435 0.0
0.969309 -0.177198 0.0
1.015620 -0.130109 0.0
1.060763 -0.071820 0.0
1.101192 -0.008671 0.0
1.132757 0.049973 0.0
1.153502 0.099344 0.0
1.163801 0.137848 0.0
1.164564 0.164919 0.0
1.156977 0.180809 0.0
1.142332 0.186425 0.0
1.121909 0.183215 0.0
1.096917 0.173037 0.0
1.068464 0.158026 0.0
1.037511 0.140426 0.0
1.004846 0.122370 0.0
0.971108 0.105551 0.0
0.936930 0.090809 0.0
0.903164 0.077818 0.0
0.871053 0.065163 0.0
0.842188 0.050918 0.0
0.818197 0.033488 0.0
0.800332 0.012262 0.0
0.789127 -0.012323 0.0
0.784426 -0.039095 0.0
0.785713 -0.066344 0.0
0.792316 -0.092234 0.0
0.803489 -0.115134 0.0
0.818462 -0.133709 0.0
0.836468 -0.146912 0.0
0.856749 -0.153966 0.0
0.878548 -0.154379 0.0
0.901092 -0.147994 0.0
0.923557 -0.135075 0.0
0.945020 -0.116399 0.0
0.964410 -0.093370 0.0
0.980162 -0.066568 0.0
1.000870 -0.015656 0.0
1.004464 -0.047731 0.0
1.012159 -0.081820 0.0
1.025094 -0.119128 0.0
1.045271 -0.160665 0.0
1.075864 -0.206825 0.0
1.121479 -0.256530 0.0
1.187052 -0.303841 0.0
1.282060 -0.350217 0.0
1.379661 -0.317773 0.0
1.443961 -0.257029 0.0
1.480193 -0.195696 0.0
1.500400 -0.139322 0.0
1.511473 -0.086422 0.0
1.514960 -0.034906 0.0
1.509756 0.014043 0.0
1.494907 0.058978 0.0
1.470638 0.097657 0.0
1.438230 0.128134 0.0
1.399536 0.148993 0.0
1.356692 0.159301 0.0
1.311970 0.158556 0.0
1.267691 0.146669 0.0
1.226141 0.124012 0.0
1.189394 0.091560 0.0
1.158793 0.051179 0.0
1.133905 0.005235 0.0
1.113937 -0.045994 0.0
1.100634 -0.099150 0.0
1.097451 -0.146628 0.0
1.108169 -0.181503 0.0
1.135776 -0.196446 0.0
1.179999 -0.184696 0.0
1.235862 -0.143071 0.0
1.293258 -0.075548 0.0
1.338111 0.003671 0.0
1.362167 0.074741 0.0
1.367502 0.132422 0.0
1.358758 0.177072 0.0
1.339532 0.210020 0.0
1.312576 0.232827 0.0
1.280029 0.246957 0.0
1.243588 0.253662 0.0
1.204622 0.253963 0.0
1.164239 0.248669 0.0
1.123338 0.238408 0.0
1.082646 0.223653 0.0
1.042728 0.204788 0.0
1.003895 0.182309 0.0
0.965913 0.157232 0.0
0.927666 0.131374 0.0
0.887366 0.106743 0.0
0.843994 0.083711 0.0
0.799435 0.059494 0.0
0.759049 0.029259 0.0
0.728983 -0.010513 0.0
0.712758 -0.059155 0.0
0.710143 -0.111599 0.0
0.718507 -0.161803 0.0
0.735009 -0.205049 0.0
0.757676 -0.237964 0.0
0.785426 -0.257920 0.0
0.817721 -0.262702 0.0
0.854170 -0.250643 0.0
0.894195 -0.221118 0.0
0.936806 -0.175112 0.0
0.980472 -0.115624 0.0
1.022978 -0.047803 0.0
1.060511 0.020007 0.0
1.089614 0.079462 0.0
1.109265 0.127780 0.0
1.119584 0.163905 0.0
1.121163 0.187830 0.0
1.114853 0.200358 0.0
1.101639 0.202921 0.0
1.082542 0.197420 0.0
1.058559 0.186080 0.0
1.030604 0.171280 0.0
0.999504 0.155281 0.0
0.966076 0.139805 0.0
0.931293 0.125515 0.0
0.896460 0.111711 0.0
0.863244 0.096596 0.0
0.833470 0.078124 0.0
0.808745 0.054998 0.0
0.790121 0.027240 0.0
0.777959 -0.003934 0.0
0.771992 -0.036816 0.0
0.771620 -0.069538 0.0
0.776169 -0.100191 0.0
0.784934 -0.127115 0.0
0.797199 -0.148968 0.0
0.812256 -0.164715 0.0
0.829412 -0.173599 0.0
0.847995 -0.175129 0.0
0.867330 -0.169124 0.0
0.886703 -0.155782 0.0
0.905307 -0.135759 0.0
0.922213 -0.110305 0.0
0.936145 -0.079317 0.0
1.000483 -0.017009 0.0
1.002513 -0.052002 0.0
1.007033 -0.089763 0.0
1.015176 -0.132262 0.0
1.029174 -0.181704 0.0
1.053152 -0.240358 0.0
1.094474 -0.309933 0.0
1.164187 -0.385724 0.0
1.292198 -0.491352 0.0
1.411126 -0.393168 0.0
1.451505 -0.286314 0.0
1.455676 -0.206813 0.0
1.452429 -0.145164 0.0
1.451768 -0.090993 0.0
1.453210 -0.035263 0.0
1.449732 0.023084 0.0
1.436048 0.078471 0.0
1.411586 0.126895 0.0
1.377372 0.165519 0.0
1.335121 0.192553 0.0
1.286814 0.206892 0.0
1.234558 0.207945 0.0
1.180486 0.195631 0.0
1.126643 0.170442 0.0
1.074921 0.133598 0.0
1.026770 0.087892 0.0
0.981580 0.038601 0.0
0.934021 -0.011833 0.0
0.884030 -0.070016 0.0
0.845069 -0.133618 0.0
0.831796 -0.191959 0.0
0.849268 -0.231070 0.0
0.894217 -0.239244 0.0
0.959780 -0.209949 0.0
1.037536 -0.143822 0.0
1.116083 -0.051453 0.0
1.179127 0.042766 0.0
1.219154 0.119035 0.0
1.240391 0.177966 0.0
1.246736 0.222008 0.0
1.241087 0.253443 0.0
1.225789 0.274186 0.0
1.202856 0.285806 0.0
1.174057 0.289584 0.0
1.140930 0.286558 0.0
1.104789 0.277562 0.0
1.066710 0.263272 0.0
1.027438 0.244358 0.0
0.987109 0.221901 0.0
0.944832 0.197900 0.0
0.898805 0.174981 0.0
0.847904 0.154337 0.0
0.794307 0.133085 0.0
0.744406 0.104580 0.0
0.705894 0.063071 0.0
0.683238 0.008397 0.0
0.675675 -0.054278 0.0
0.679325 -0.117510 0.0
0.690385 -0.175316 0.0
0.706347 -0.224001 0.0
0.725895 -0.261227 0.0
0.748595 -0.285106 0.0
0.774573 -0.293789 0.0
0.804156 -0.285589 0.0
0.837502 -0.259542 0.0
0.874312 -0.216108 0.0
0.913695 -0.157677 0.0
0.954123 -0.088684 0.0
0.993083 -0.015604 0.0
1.026889 0.052165 0.0
1.052935 0.109381 0.0
1.070587 0.154334 0.0
1.079811 0.186599 0.0
1.080976 0.206734 0.0
1.074694 0.216041 0.0
1.061716 0.216374 0.0
1.042848 0.209978 0.0
1.018906 0.199279 0.0
0.990739 0.186549 0.0
0.959326 0.173379 0.0
0.925923 0.160127 0.0
0.892136 0.145717 0.0
0.859824 0.128118 0.0
0.830804 0.105397 0.0
0.806513 0.076741 0.0
0.787808 0.042826 0.0
0.774978 0.005472 0.0
0.767834 -0.033112 0.0
0.765894 -0.070930 0.0
0.768565 -0.106019 0.0
0.775192 -0.136679 0.0
0.785079 -0.161555 0.0
0.797522 -0.179628 0.0
0.811854 -0.190174 0.0
0.827454 -0.192736 0.0
0.843732 -0.187131 0.0
0.860089 -0.173505 0.0
0.875859 -0.152410 0.0
0.890266 -0.124968 0.0
0.902267 -0.090588 0.0
0.999955 -0.017447 0.0
0.999814 -0.053452 0.0
0.999765 -0.092784 0.0
1.000494 -0.138115 0.0
1.003636 -0.192991 0.0
1.012950 -0.262364 0.0
1.037066 -0.353366 0.0
1.094691 -0.469629 0.0
1.252553 -0.693320 0.0
1.362221 -0.419797 0.0
1.318146 -0.255990 0.0
1.254818 -0.177981 0.0
1.212082 -0.128014 0.0
1.193771 -0.089171 0.0
1.198398 -0.043153 0.0
1.209404 0.023445 0.0
1.210384 0.090812 0.0
1.198841 0.150558 0.0
1.175557 0.199354 0.0
1.141310 0.235217 0.0
1.097040 0.256805 0.0
1.043926 0.263401 0.0
0.982906 0.255267 0.0
0.913299 0.234258 0.0
0.831340 0.203463 0.0
0.733216 0.164301 0.0
0.625939 0.114660 0.0
0.533697 0.051908 0.0
0.478997 -0.029066 0.0
0.466844 -0.123455 0.0
0.489052 -0.211057 0.0
0.534318 -0.274709 0.0
0.596287 -0.302522 0.0
0.672000 -0.287948 0.0
0.759051 -0.230631 0.0
0.853657 -0.137797 0.0
0.946645 -0.026922 0.0
1.022834 0.072506 0.0
1.076438 0.149655 0.0
1.111759 0.208654 0.0
1.131582 0.252623 0.0
1.138085 0.283801 0.0
1.133274 0.303934 0.0
1.119060 0.314469 0.0
1.097224 0.316635 0.0
1.069355 0.311495 0.0
1.036734 0.300039 0.0
1.000092 0.283505 0.0
0.959222 0.263952 0.0
0.912975 0.244373 0.0
0.860528 0.226981 0.0
0.803914 0.209853 0.0
0.749401 0.185680 0.0
0.705143 0.146145 0.0
0.676482 0.088680 0.0
0.663573 0.018353 0.0
0.662966 -0.056065 0.0
0.670443 -0.126850 0.0
0.682710 -0.189304 0.0
0.697689 -0.240953 0.0
0.714281 -0.280414 0.0
0.732219 -0.306556 0.0
0.751936 -0.318033 0.0
0.774287 -0.313280 0.0
0.800124 -0.291033 0.0
0.829858 -0.251162 0.0
0.863220 -0.195369 0.0
0.899207 -0.127406 0.0
0.936142 -0.052778 0.0
0.970982 0.020693 0.0
1.000509 0.085280 0.0
1.023086 0.138206 0.0
1.038088 0.178500 0.0
1.045398 0.206359 0.0
1.045238 0.222858 0.0
1.038048 0.229724 0.0
1.024408 0.229136 0.0
1.005007 0.223464 0.0
0.980684 0.214854 0.0
0.952528 0.204642 0.0
0.921967 0.192829 0.0
0.890736 0.178033 0.0
0.860684 0.158165 0.0
0.833476 0.131577 0.0
0.810350 0.097978 0.0
0.792045 0.058599 0.0
0.778880 0.015695 0.0
0.770843 -0.028154 0.0
0.767645 -0.070749 0.0
0.768801 -0.110028 0.0
0.773706 -0.144202 0.0
0.781658 -0.171871 0.0
0.791934 -0.192032 0.0
0.803852 -0.204020 0.0
0.816812 -0.207449 0.0
0.830295 -0.202179 0.0
0.843819 -0.188338 0.0
0.856869 -0.166396 0.0
0.868844 -0.137363 0.0
0.878890 -0.100239 0.0
0.999339 -0.016741 0.0
0.996642 -0.051321 0.0
0.991077 -0.089302 0.0
0.982376 -0.133625 0.0
0.970373 -0.188620 0.0
0.955702 -0.261377 0.0
0.942101 -0.364866 0.0
0.944994 -0.518646 0.0
1.051325 -0.908496 0.0
1.052620 -0.205982 0.0
0.858637 -0.109873 0.0
0.714280 -0.104139 0.0
0.640297 -0.085137 0.0
0.609523 -0.082963 0.0
0.628900 -0.073365 0.0
0.682607 -0.011057 0.0
0.733472 0.073470 0.0
0.764648 0.148268 0.0
0.777317 0.212260 0.0
0.770243 0.263632 0.0
0.741970 0.300932 0.0
0.690721 0.323636 0.0
0.614515 0.332259 0.0
0.513716 0.327672 0.0
0.397027 0.308696 0.0
0.285620 0.268599 0.0
0.206474 0.196785 0.0
0.176178 0.092321 0.0
0.189946 -0.028548 0.0
0.227829 -0.149704 0.0
0.274726 -0.253912 0.0
0.327574 -0.329967 0.0
0.387948 -0.369606 0.0
0.458265 -0.366894 0.0
0.539812 -0.320284 0.0
0.631842 -0.234780 0.0
0.731209 -0.122293 0.0
0.827368 -0.004471 0.0
0.906606 0.093790 0.0
0.965625 0.170178 0.0
1.007532 0.229368 0.0
1.034153 0.273932 0.0
1.047129 0.305640 0.0
1.048137 0.325969 0.0
1.038849 0.336258 0.0
1.020797 0.337793 0.0
0.995151 0.332008 0.0
0.962385 0.320945 0.0
0.922146 0.307621 0.0
0.874057 0.295040 0.0
0.819807 0.283011 0.0
0.764937 0.265307 0.0
0.717617 0.232058 0.0
0.684357 0.177286 0.0
0.666724 0.103833 0.0
0.662136 0.020696 0.0
0.666705 -0.062370 0.0
0.676989 -0.138306 0.0
0.690368 -0.203492 0.0
0.704956 -0.256332 0.0
0.719569 -0.296240 0.0
0.733800 -0.322900 0.0
0.748084 -0.335691 0.0
0.763565 -0.333455 0.0
0.781688 -0.314818 0.0
0.803631 -0.279054 0.0
0.829830 -0.227038 0.0
0.859833 -0.161727 0.0
0.892391 -0.087950 0.0
0.925379 -0.011963 0.0
0.955718 0.058070 0.0
0.980888 0.117668 0.0
0.999724 0.165200 0.0
1.011654 0.200419 0.0
1.016518 0.224095 0.0
1.014444 0.237752 0.0
1.005775 0.243418 0.0
0.991058 0.243300 0.0
0.971096 0.239303 0.0
0.947017 0.232427 0.0
0.920294 0.222327 0.0
0.892636 0.207425 0.0
0.865742 0.185719 0.0
0.841056 0.155918 0.0
0.819632 0.118188 0.0
0.802164 0.074162 0.0
0.789072 0.026389 0.0
0.780540 -0.022278 0.0
0.776475 -0.069361 0.0
0.776522 -0.112619 0.0
0.780121 -0.150114 0.0
0.786570 -0.180361 0.0
0.795112 -0.202360 0.0
0.805028 -0.215526 0.0
0.815714 -0.219589 0.0
0.826697 -0.214505 0.0
0.837601 -0.200440 0.0
0.848070 -0.177813 0.0
0.857686 -0.147537 0.0
0.865777 -0.108202 0.0
0.998744 -0.014823 0.0
0.993575 -0.045373 0.0
0.982612 -0.078723 0.0
0.964434 -0.117325 0.0
0.936390 -0.164874 0.0
0.893607 -0.227670 0.0
0.826523 -0.317888 0.0
0.717516 -0.459510 0.0
0.324863 -0.790911 0.0
-0.478801 0.287382 0.0
-0.478801 0.000000 0.0
-0.040830 -0.028691 0.0
-0.067951 -0.071621 0.0
-0.011520 -0.122135 0.0
0.082369 -0.147459 0.0
0.181554 -0.089856 0.0
0.267233 0.015725 0.0
0.327958 0.114111 0.0
0.361212 0.200494 0.0
0.368088 0.275595 0.0
0.347068 0.338261 0.0
0.297616 0.387008 0.0
0.223843 0.418867 0.0
0.138431 0.427275 0.0
0.061696 0.402517 0.0
0.012690 0.335192 0.0
0.003601 0.218428 0.0
0.033127 0.071449 0.0
0.081860 -0.070177 0.0
0.132597 -0.196695 0.0
0.180913 -0.302133 0.0
0.227127 -0.380808 0.0
0.274878 -0.426890 0.0
0.329548 -0.434596 0.0
0.395776 -0.400358 0.0
0.475202 -0.326161 0.0
0.565924 -0.221001 0.0
0.663198 -0.099196 0.0
0.755080 0.017394 0.0
0.830312 0.112323 0.0
0.887905 0.187724 0.0
0.929802 0.247058 0.0
0.957231 0.292110 0.0
0.971433 0.324290 0.0
0.973692 0.344966 0.0
0.965179 0.355650 0.0
0.946672 0.358303 0.0
0.918366 0.355721 0.0
0.880271 0.351180 0.0
0.833711 0.346131 0.0
0.783176 0.336705 0.0
0.736261 0.313399 0.0
0.700400 0.267147 0.0
0.679026 0.196831 0.0
0.670999 0.109947 0.0
0.673065 0.017103 0.0
0.681955 -0.072236 0.0
0.694952 -0.151722 0.0
0.709834 -0.218338 0.0
0.724789 -0.271030 0.0
0.738487 -0.309853 0.0
0.750271 -0.335302 0.0
0.760358 -0.347659 0.0
0.769890 -0.346499 0.0
0.780675 -0.330684 0.0
0.794598 -0.299054 0.0
0.812927 -0.251566 0.0
0.835895 -0.190170 0.0
0.862709 -0.118879 0.0
0.891806 -0.043119 0.0
0.920566 0.030128 0.0
0.946227 0.094779 0.0
0.967068 0.148412 0.0
0.982095 0.190250 0.0
0.990795 0.220699 0.0
0.993003 0.241014 0.0
0.988837 0.252990 0.0
0.978702 0.258579 0.0
0.963330 0.259359 0.0
0.943818 0.255963 0.0
0.921580 0.247752 0.0
0.898174 0.233064 0.0
0.875068 0.210080 0.0
0.853457 0.177854 0.0
0.834236 0.136896 0.0
0.818083 0.089075 0.0
0.805526 0.037124 0.0
0.796939 -0.015894 0.0
0.792414 -0.067155 0.0
0.791708 -0.114167 0.0
0.794326 -0.154783 0.0
0.799583 -0.187397 0.0
0.806706 -0.210988 0.0
0.814942 -0.225051 0.0
0.823661 -0.229468 0.0
0.832406 -0.224354 0.0
0.840886 -0.209975 0.0
0.848892 -0.186754 0.0
0.856204 -0.155525 0.0
0.862332 -0.114433 0.0
0.998299 -0.011866 0.0
0.991296 -0.036158 0.0
0.976388 -0.062068 0.0
0.951451 -0.090864 0.0
0.912374 -0.124212 0.0
0.851215 -0.164390 0.0
0.751487 -0.214357 0.0
0.573840 -0.276387 0.0
0.229254 -0.340393 0.0
0.000000 0.287382 0.0
-0.000000 -0.000000 0.0
0.000000 0.000000 0.0
-0.041840 -0.042665 0.0
-0.088376 -0.160160 0.0
-0.089747 -0.201953 0.0
-0.073447 -0.150848 0.0
-0.037794 -0.044613 0.0
0.003486 0.072444 0.0
0.032005 0.180389 0.0
0.041209 0.279621 0.0
0.029115 0.367348 0.0
-0.001271 0.437759 0.0
-0.040710 0.481328 0.0
-0.075524 0.485040 0.0
-0.091727 0.437690 0.0
-0.080555 0.337853 0.0
-0.033624 0.177925 0.0
0.033310 0.015492 0.0
0.095952 -0.125595 0.0
0.150605 -0.246668 0.0
0.195471 -0.345342 0.0
0.231020 -0.419362 0.0
0.261008 -0.466075 0.0
0.292365 -0.481438 0.0
0.333293 -0.460673 0.0
0.389666 -0.401645 0.0
0.462157 -0.308731 0.0
0.546540 -0.193122 0.0
0.635661 -0.069683 0.0
0.717562 0.042267 0.0
0.784132 0.133617 0.0
0.835690 0.207708 0.0
0.873171 0.266550 0.0
0.897322 0.311497 0.0
0.908889 0.343932 0.0
0.908489 0.365598 0.0
0.896438 0.378914 0.0
0.872903 0.386951 0.0
0.838853 0.392094 0.0
0.797637 0.392993 0.0
0.755689 0.382324 0.0
0.720615 0.349768 0.0
0.697506 0.289747 0.0
0.687063 0.206049 0.0
0.687058 0.108760 0.0
0.694711 0.008572 0.0
0.707500 -0.085383 0.0
0.723134 -0.167206 0.0
0.739606 -0.234209 0.0
0.755180 -0.285688 0.0
0.768485 -0.322197 0.0
0.778684 -0.344941 0.0
0.785702 -0.355125 0.0
0.790431 -0.353293 0.0
0.794706 -0.338949 0.0
0.800869 -0.310874 0.0
0.811000 -0.268206 0.0
0.826193 -0.211691 0.0
0.846286 -0.144265 0.0
0.870082 -0.070626 0.0
0.895516 0.003439 0.0
0.919965 0.071358 0.0
0.941237 0.129720 0.0
0.957987 0.177164 0.0
0.969397 0.213676 0.0
0.975040 0.240186 0.0
0.974837 0.258187 0.0
0.969051 0.269302 0.0
0.958321 0.274737 0.0
0.943652 0.274766 0.0
0.926311 0.268528 0.0
0.907636 0.254370 0.0
0.888817 0.230699 0.0
0.870803 0.196861 0.0
0.854335 0.153578 0.0
0.840058 0.102824 0.0
0.828578 0.047412 0.0
0.820407 -0.009424 0.0
0.815779 -0.064472 0.0
0.814576 -0.114941 0.0
0.816390 -0.158440 0.0
0.820593 -0.193201 0.0
0.826433 -0.218147 0.0
0.833147 -0.232842 0.0
0.840077 -0.237326 0.0
0.846760 -0.231924 0.0
0.852954 -0.217078 0.0
0.858578 -0.193282 0.0
0.863600 -0.161332 0.0
0.867735 -0.118888 0.0
0.998092 -0.008257 0.0
0.990261 -0.024933 0.0
0.973709 -0.041833 0.0
0.946397 -0.058850 0.0
0.904653 -0.075406 0.0
0.842323 -0.089706 0.0
0.750052 -0.097043 0.0
0.616563 -0.082564 0.0
0.439585 -0.006649 0.0
0.170548 0.152307 0.0
0.000000 0.000000 0.0
-0.000000 -0.000000 0.0
0.000000 0.000000 0.0
-0.075216 -0.077732 0.0
-0.163570 -0.192139 0.0
-0.181326 -0.159206 0.0
-0.185073 -0.068161 0.0
-0.175360 0.044999 0.0
-0.157399 0.161353 0.0
-0.142744 0.274797 0.0
-0.135908 0.377430 0.0
-0.135407 0.457563 0.0
-0.135000 0.500555 0.0
-0.125635 0.491261 0.0
-0.092249 0.414286 0.0
-0.022921 0.280757 0.0
0.061151 0.104018 0.0
0.136710 -0.053095 0.0
0.202654 -0.185595 0.0
0.256800 -0.295467 0.0
0.297121 -0.381729 0.0
0.323168 -0.444571 0.0
0.336938 -0.484626 0.0
0.344034 -0.501340 0.0
0.353817 -0.491482 0.0
0.376771 -0.450163 0.0
0.419474 -0.375407 0.0
0.481185 -0.272538 0.0
0.555251 -0.153455 0.0
0.632238 -0.032848 0.0
0.701417 0.072985 0.0
0.757444 0.160754 0.0
0.800679 0.232788 0.0
0.831333 0.290453 0.0
0.849565 0.335177 0.0
0.855434 0.368884 0.0
0.848983 0.394131 0.0
0.830790 0.413461 0.0
0.803129 0.427294 0.0
0.770950 0.431189 0.0
0.741142 0.415884 0.0
0.719687 0.372738 0.0
0.709034 0.300538 0.0
0.708279 0.206456 0.0
0.715269 0.101369 0.0
0.727963 -0.004383 0.0
0.744299 -0.101554 0.0
0.762176 -0.184547 0.0
0.779760 -0.250923 0.0
0.795483 -0.300271 0.0
0.808099 -0.333536 0.0
0.816776 -0.352478 0.0
0.821257 -0.359088 0.0
0.822101 -0.354903 0.0
0.820859 -0.340372 0.0
0.819942 -0.314698 0.0
0.821992 -0.276563 0.0
0.828990 -0.225524 0.0
0.841614 -0.163150 0.0
0.859197 -0.093120 0.0