# vtk DataFile Version 3.0
Scalar Field
ASCII
DATASET RECTILINEAR_GRID
DIMENSIONS 100 26 1
X_COORDINATES 100 double
0.050000 0.150000 0.250000 0.350000 0.450000 0.550000 0.650000 0.750000 0.850000 0.950000 1.050000 1.150000 1.250000 1.350000 1.450000 1.550000 1.650000 1.750000 1.850000 1.950000 2.050000 2.150000 2.250000 2.350000 2.450000 2.550000 2.650000 2.750000 2.850000 2.950000 3.050000 3.150000 3.250000 3.350000 3.450000 3.550000 3.650000 3.750000 3.850000 3.950000 4.050000 4.150000 4.250000 4.350000 4.450000 4.550000 4.650000 4.750000 4.850000 4.950000 5.050000 5.150000 5.250000 5.350000 5.450000 5.550000 5.650000 5.750000 5.850000 5.950000 6.050000 6.150000 6.250000 6.350000 6.450000 6.550000 6.650000 6.750000 6.850000 6.950000 7.050000 7.150000 7.250000 7.350000 7.450000 7.550000 7.650000 7.750000 7.850000 7.950000 8.050000 8.150000 8.250000 8.350000 8.450000 8.550000 8.650000 8.750000 8.850000 8.950000 9.050000 9.150000 9.250000 9.350000 9.450000 9.550000 9.650000 9.750000 9.850000 9.950000 
Y_COORDINATES 26 double
0.050000 0.150000 0.250000 0.350000 0.450000 0.550000 0.650000 0.750000 0.850000 0.950000 1.050000 1.150000 1.250000 1.350000 1.450000 1.550000 1.650000 1.750000 1.850000 1.950000 2.050000 2.150000 2.250000 2.350000 2.450000 2.550000 
Z_COORDINATES 1 double
0.0
POINT_DATA 2600
SCALARS Skalarfeld double 1
LOOKUP_TABLE default
0.299394
0.284347
0.269813
0.252751
0.232048
0.207240
0.178262
0.145424
0.109452
0.071498
0.033036
-0.004382
-0.039398
-0.071022
-0.098690
-0.122233
-0.141792
-0.157434
-0.169237
-0.177433
-0.182143
-0.183445
-0.181454
-0.176402
-0.168687
-0.158880
-0.147683
-0.135832
-0.124005
-0.112716
-0.102252
-0.092632
-0.083628
-0.074818
-0.065690
-0.055737
-0.044533
-0.032002
-0.016665
-0.000292
0.015493
0.029676
0.041622
0.050912
0.057333
0.060830
0.061614
0.060267
0.056480
0.050017
0.040708
0.028570
0.014096
-0.001369
-0.015587
-0.026259
-0.032393
-0.034811
-0.034507
-0.032568
-0.029307
-0.024782
-0.019648
-0.014433
-0.009545
-0.005270
-0.001798
0.000755
0.002283
0.002851
0.002485
0.001245
-0.000631
-0.002831
-0.005004
-0.006819
-0.008062
-0.008734
-0.009095
-0.009587
-0.010755
-0.013083
-0.016789
-0.021853
-0.028000
-0.034814
-0.041886
-0.048930
-0.055835
-0.062606
-0.069272
-0.075767
-0.081981
-0.087579
-0.092646
-0.097355
-0.101895
-0.106422
-0.110998
-0.115768
0.290133
0.283895
0.272344
0.256483
0.236173
0.211202
0.181540
0.147503
0.109904
0.070100
0.029883
-0.008918
-0.044809
-0.076813
-0.104465
-0.127699
-0.146657
-0.161726
-0.173333
-0.181541
-0.186392
-0.187893
-0.186074
-0.181087
-0.173286
-0.163234
-0.151650
-0.139308
-0.126926
-0.115057
-0.104019
-0.093853
-0.084343
-0.075076
-0.065544
-0.055213
-0.043428
-0.029386
-0.014207
0.001385
0.016358
0.029912
0.041441
0.050504
0.056893
0.060783
0.062189
0.060724
0.056753
0.050060
0.040446
0.027874
0.012845
-0.003122
-0.017502
-0.027870
-0.033435
-0.035200
-0.035028
-0.033395
-0.030249
-0.025433
-0.020144
-0.014785
-0.009771
-0.005381
-0.001809
0.000843
0.002593
0.003319
0.002856
0.001457
-0.000555
-0.002865
-0.005093
-0.006881
-0.008001
-0.008461
-0.008546
-0.008792
-0.009781
-0.011997
-0.015744
-0.020987
-0.027392
-0.034460
-0.041712
-0.048845
-0.055776
-0.062571
-0.069321
-0.075860
-0.081940
-0.087574
-0.092742
-0.097589
-0.102276
-0.106934
-0.111559
-0.116204
0.292400
0.288525
0.278890
0.264099
0.244112
0.218674
0.187625
0.151192
0.110281
0.066649
0.022834
-0.018705
-0.056224
-0.088818
-0.116275
-0.138851
-0.157061
-0.171521
-0.182740
-0.191148
-0.196569
-0.198795
-0.197621
-0.192990
-0.185121
-0.174529
-0.161957
-0.148243
-0.134186
-0.120424
-0.107357
-0.095119
-0.083585
-0.072431
-0.061219
-0.049464
-0.036699
-0.022597
-0.008189
0.006030
0.019507
0.031666
0.041960
0.049935
0.055342
0.058212
0.058781
0.056670
0.051793
0.044598
0.034997
0.023073
0.009407
-0.004640
-0.017127
-0.026424
-0.032111
-0.034821
-0.035236
-0.033351
-0.029386
-0.024829
-0.020016
-0.014782
-0.009867
-0.005542
-0.002040
0.000497
0.002012
0.002481
0.002013
0.000727
-0.001112
-0.003105
-0.004896
-0.006220
-0.006952
-0.007170
-0.007184
-0.007495
-0.008589
-0.010910
-0.014728
-0.020030
-0.026470
-0.033559
-0.040833
-0.048011
-0.055033
-0.061939
-0.068678
-0.075235
-0.081535
-0.087379
-0.092800
-0.098033
-0.103200
-0.108412
-0.113562
-0.117947
0.301851
0.298757
0.290200
0.276197
0.256380
0.230146
0.196934
0.156657
0.110255
0.060109
0.010382
-0.035301
-0.074927
-0.107903
-0.134542
-0.155664
-0.172314
-0.185545
-0.196188
-0.204667
-0.211005
-0.214431
-0.214336
-0.210300
-0.202326
-0.190881
-0.176774
-0.160962
-0.144372
-0.127768
-0.111677
-0.096365
-0.081857
-0.067998
-0.054524
-0.041145
-0.027633
-0.013925
-0.000303
0.012716
0.024779
0.035420
0.044094
0.050322
0.053851
0.054710
0.053138
0.049433
0.043519
0.035546
0.026069
0.015295
0.003747
-0.007612
-0.017566
-0.025144
-0.030021
-0.032386
-0.032528
-0.030697
-0.027328
-0.023010
-0.017911
-0.013065
-0.008657
-0.004696
-0.001556
0.000594
0.001675
0.001705
0.000849
-0.000622
-0.002354
-0.004000
-0.005303
-0.006131
-0.006483
-0.006497
-0.006437
-0.006658
-0.007653
-0.009848
-0.013504
-0.018615
-0.024808
-0.031707
-0.038922
-0.046189
-0.053398
-0.060506
-0.067449
-0.074126
-0.080379
-0.086370
-0.092321
-0.098286
-0.104299
-0.110652
-0.117329
-0.124596
0.317008
0.314327
0.306604
0.293412
0.273884
0.246768
0.210689
0.164761
0.109675
0.048598
-0.010384
-0.061641
-0.103294
-0.135704
-0.160192
-0.178448
-0.192263
-0.203340
-0.213004
-0.221836
-0.229593
-0.235012
-0.236651
-0.233472
-0.225197
-0.212331
-0.195897
-0.177113
-0.157137
-0.136918
-0.117136
-0.098200
-0.080294
-0.063432
-0.047533
-0.032478
-0.018166
-0.004551
0.008343
0.020509
0.031484
0.040793
0.047802
0.051976
0.053126
0.051382
0.047084
0.040712
0.032874
0.024123
0.014622
0.004963
-0.004477
-0.013145
-0.020391
-0.025708
-0.028900
-0.030047
-0.029356
-0.027102
-0.023652
-0.019431
-0.014825
-0.010321
-0.006067
-0.002573
0.000058
0.001668
0.002169
0.001578
0.000122
-0.001819
-0.003810
-0.005481
-0.006622
-0.007178
-0.007213
-0.006923
-0.006610
-0.006645
-0.007448
-0.009375
-0.012651
-0.017297
-0.023214
-0.029985
-0.037132
-0.044361
-0.051524
-0.058553
-0.065402
-0.072035
-0.078449
-0.084750
-0.091044
-0.097535
-0.104685
-0.112747
-0.121974
-0.135903
0.337092
0.334830
0.328149
0.316255
0.297684
0.270199
0.230939
0.177192
0.108429
0.028162
-0.044840
-0.102297
-0.144377
-0.173869
-0.193761
-0.206862
-0.215878
-0.223398
-0.231564
-0.241391
-0.252012
-0.261077
-0.265774
-0.264015
-0.255184
-0.240055
-0.220174
-0.197270
-0.172885
-0.148224
-0.124136
-0.101159
-0.079594
-0.059581
-0.041162
-0.024327
-0.009041
0.004758
0.017170
0.028402
0.038555
0.046808
0.052352
0.054548
0.053401
0.049222
0.042424
0.033499
0.023089
0.012033
0.001868
-0.007144
-0.014888
-0.021195
-0.025866
-0.028757
-0.029859
-0.029300
-0.027297
-0.024132
-0.020136
-0.015668
-0.011076
-0.006700
-0.002802
0.000315
0.002474
0.003489
0.003257
0.001867
-0.000423
-0.003189
-0.005915
-0.008061
-0.009415
-0.010013
-0.009881
-0.009261
-0.008520
-0.008089
-0.008406
-0.009847
-0.012658
-0.016903
-0.022439
-0.028917
-0.035932
-0.043094
-0.050085
-0.056837
-0.063345
-0.069653
-0.075859
-0.082124
-0.088665
-0.095797
-0.103961
-0.113634
-0.125536
-0.146755
0.361318
0.359648
0.354574
0.345021
0.328910
0.302719
0.261113
0.197391
0.106626
-0.010034
-0.102425
-0.163006
-0.200491
-0.222618
-0.234257
-0.239084
-0.240568
-0.242346
-0.247894
-0.259351
-0.275883
-0.291987
-0.302168
-0.302933
-0.293304
-0.274851
-0.250174
-0.221853
-0.191981
-0.162063
-0.133103
-0.105724
-0.080290
-0.056996
-0.035946
-0.017191
-0.000749
0.013388
0.025275
0.035047
0.043688
0.050888
0.055175
0.055543
0.052483
0.046666
0.038575
0.028517
0.016861
0.004275
-0.008201
-0.018483
-0.025543
-0.030357
-0.033079
-0.033885
-0.032989
-0.030644
-0.027138
-0.022785
-0.017916
-0.012864
-0.007944
-0.003441
0.000398
0.003332
0.005138
0.005594
0.004570
0.002138
-0.001371
-0.005404
-0.009318
-0.012572
-0.014635
-0.015456
-0.015157
-0.014089
-0.012722
-0.011566
-0.011111
-0.011770
-0.013827
-0.017395
-0.022385
-0.028507
-0.035342
-0.042358
-0.049139
-0.055562
-0.061621
-0.067416
-0.073133
-0.079029
-0.085433
-0.092758
-0.101534
-0.112431
-0.126371
-0.152528
0.388576
0.387764
0.385122
0.379488
0.368400
0.347094
0.306785
0.232776
0.104967
-0.086727
-0.197467
-0.246632
-0.269091
-0.278104
-0.277952
-0.271752
-0.262967
-0.256088
-0.256471
-0.268407
-0.292576
-0.322760
-0.342701
-0.347909
-0.337452
-0.314750
-0.284214
-0.249615
-0.213666
-0.178142
-0.144140
-0.112306
-0.083012
-0.056465
-0.032785
-0.012057
0.005620
0.020091
0.031180
0.038942
0.043758
0.047075
0.050202
0.048534
0.044121
0.038195
0.030972
0.022228
0.011808
-0.000045
-0.012517
-0.024261
-0.033415
-0.038048
-0.039989
-0.039623
-0.037367
-0.033633
-0.028822
-0.023323
-0.017510
-0.011731
-0.006301
-0.001495
0.002442
0.005263
0.006700
0.006484
0.004453
0.000696
-0.004359
-0.009983
-0.015329
-0.019664
-0.022541
-0.023489
-0.022848
-0.021128
-0.018922
-0.016824
-0.015376
-0.015026
-0.016093
-0.018731
-0.022910
-0.028398
-0.034802
-0.041613
-0.048332
-0.054435
-0.060047
-0.065277
-0.070363
-0.075646
-0.081552
-0.088590
-0.097375
-0.108665
-0.123428
-0.151335
0.417272
0.417587
0.418252
0.418363
0.415756
0.405443
0.375833
0.299936
0.110014
-0.253401
-0.342668
-0.340529
-0.335779
-0.329834
-0.318167
-0.301637
-0.282545
-0.265316
-0.257420
-0.265794
-0.293644
-0.335953
-0.376720
-0.388974
-0.378512
-0.351856
-0.315936
-0.275820
-0.234719
-0.194535
-0.156367
-0.120854
-0.088368
-0.059135
-0.033309
-0.011036
0.007438
0.021633
0.030870
0.034942
0.035047
0.033208
0.029894
0.027001
0.023872
0.020558
0.016705
0.011675
0.004891
-0.003845
-0.014132
-0.024920
-0.034718
-0.041889
-0.044294
-0.043951
-0.041355
-0.037036
-0.031509
-0.025261
-0.018746
-0.012369
-0.006487
-0.001409
0.002585
0.005205
0.006130
0.005047
0.001782
-0.003515
-0.010264
-0.017512
-0.024181
-0.029379
-0.032609
-0.033360
-0.032112
-0.029517
-0.026282
-0.023079
-0.020496
-0.019007
-0.018950
-0.020508
-0.023693
-0.028334
-0.034079
-0.040446
-0.046911
-0.052955
-0.058150
-0.062836
-0.067257
-0.071789
-0.076921
-0.083227
-0.091370
-0.102112
-0.116356
-0.143168
0.445318
0.446916
0.451437
0.458647
0.467693
0.475763
0.473844
0.431557
0.211530
-0.565837
-0.513293
-0.399324
-0.373909
-0.362632
-0.346423
-0.325830
-0.303603
-0.281325
-0.268156
-0.270992
-0.294153
-0.335193
-0.381056
-0.410769
-0.402029
-0.373524
-0.334998
-0.292471
-0.249278
-0.207213
-0.167297
-0.130170
-0.096271
-0.065944
-0.039515
-0.017421
-0.000376
0.010652
0.015035
0.013470
0.008340
0.002513
-0.002562
-0.004490
-0.004393
-0.003341
-0.002301
-0.002242
-0.004019
-0.008169
-0.014696
-0.022944
-0.031681
-0.039399
-0.044447
-0.045146
-0.043258
-0.039316
-0.033890
-0.027551
-0.020837
-0.014244
-0.008203
-0.003090
0.000750
0.002963
0.003171
0.001030
-0.003606
-0.010481
-0.018820
-0.027444
-0.035092
-0.040783
-0.043893
-0.044096
-0.041970
-0.038286
-0.033857
-0.029430
-0.025633
-0.022954
-0.021732
-0.022162
-0.024280
-0.027955
-0.032885
-0.038619
-0.044629
-0.050411
-0.055431
-0.059598
-0.063365
-0.067082
-0.071252
-0.076472
-0.083403
-0.092766
-0.105343
-0.128949
0.470349
0.473149
0.481331
0.495499
0.516684
0.546258
0.585319
0.631200
0.718932
0.076548
-0.449069
-0.384846
-0.378971
-0.374762
-0.366012
-0.348958
-0.329791
-0.312504
-0.300176
-0.298476
-0.311402
-0.338606
-0.372267
-0.396297
-0.398851
-0.370779
-0.333152
-0.292309
-0.251189
-0.211161
-0.173045
-0.137484
-0.105055
-0.076335
-0.051991
-0.032922
-0.020282
-0.015031
-0.016930
-0.023770
-0.031988
-0.038513
-0.041231
-0.039357
-0.034547
-0.028295
-0.021892
-0.016481
-0.013032
-0.012257
-0.014448
-0.019325
-0.025989
-0.033075
-0.039097
-0.042362
-0.041925
-0.039190
-0.034673
-0.028965
-0.022676
-0.016385
-0.010613
-0.005822
-0.002438
-0.000884
-0.001593
-0.004920
-0.010956
-0.019303
-0.028995
-0.038666
-0.046937
-0.052786
-0.055419
-0.054775
-0.051529
-0.046569
-0.040811
-0.035078
-0.030034
-0.026170
-0.023815
-0.023151
-0.024218
-0.026908
-0.030955
-0.035942
-0.041354
-0.046657
-0.051411
-0.055170
-0.058310
-0.061181
-0.064268
-0.068147
-0.073444
-0.080807
-0.090888
-0.109938
0.490154
0.493803
0.504549
0.523525
0.552898
0.596451
0.660742
0.756698
0.888251
0.909770
0.000000
-0.380924
-0.377001
-0.377409
-0.376552
-0.373788
-0.368383
-0.362236
-0.355216
-0.350493
-0.350294
-0.354922
-0.363542
-0.365967
-0.360428
-0.341405
-0.307488
-0.271535
-0.236085
-0.201782
-0.169080
-0.138566
-0.110943
-0.087046
-0.067927
-0.054907
-0.049275
-0.051339
-0.059359
-0.069659
-0.078212
-0.082234
-0.079804
-0.072445
-0.062012
-0.050218
-0.038516
-0.028099
-0.019922
-0.014694
-0.012823
-0.014280
-0.018484
-0.024312
-0.030320
-0.035096
-0.036989
-0.035974
-0.032963
-0.028488
-0.023185
-0.017700
-0.012634
-0.008532
-0.005901
-0.005239
-0.007025
-0.011613
-0.019014
-0.028689
-0.039503
-0.049958
-0.058595
-0.064361
-0.066256
-0.064539
-0.059994
-0.053630
-0.046468
-0.039401
-0.033128
-0.028135
-0.024729
-0.023063
-0.023163
-0.024924
-0.028101
-0.032307
-0.037043
-0.041776
-0.046052
-0.049448
-0.051913
-0.053904
-0.055827
-0.058202
-0.061594
-0.066563
-0.073639
-0.087412
0.503177
0.507148
0.518810
0.539278
0.570510
0.615388
0.677184
0.757722
0.851151
0.931290
0.836396
0.000000
-0.379356
-0.381712
-0.389231
-0.401673
-0.415934
-0.428434
-0.434776
-0.426552
-0.407093
-0.382510
-0.357619
-0.332479
-0.309778
-0.285286
-0.258984
-0.229502
-0.201649
-0.175472
-0.150848
-0.128216
-0.108350
-0.092324
-0.081558
-0.077618
-0.081376
-0.091737
-0.105230
-0.117288
-0.124297
-0.123108
-0.114120
-0.100457
-0.084083
-0.066828
-0.050208
-0.035399
-0.023267
-0.014414
-0.009205
-0.007709
-0.009570
-0.013927
-0.019488
-0.024804
-0.028590
-0.029608
-0.028408
-0.025521
-0.021582
-0.017266
-0.013234
-0.010101
-0.008452
-0.008854
-0.011827
-0.017709
-0.026428
-0.037311
-0.049091
-0.060167
-0.069000
-0.074483
-0.075465
-0.072541
-0.066624
-0.058839
-0.050302
-0.041969
-0.034558
-0.028551
-0.024221
-0.021687
-0.020945
-0.021880
-0.024254
-0.027699
-0.031734
-0.035827
-0.039491
-0.042372
-0.044175
-0.045260
-0.045969
-0.046752
-0.048093
-0.050465
-0.054289
-0.062519
0.508831
0.512596
0.523571
0.542521
0.570725
0.609697
0.660496
0.720726
0.776132
0.790219
0.741503
0.618582
0.000000
-0.393641
-0.405570
-0.437015
-0.474141
-0.508734
-0.528524
-0.512261
-0.469230
-0.412810
-0.353801
-0.299440
-0.254070
-0.218326
-0.189407
-0.167072
-0.147226
-0.130015
-0.114718
-0.101719
-0.091918
-0.086647
-0.087557
-0.095922
-0.111317
-0.130679
-0.149028
-0.161507
-0.164884
-0.156626
-0.141192
-0.121351
-0.099414
-0.077300
-0.056510
-0.038136
-0.022918
-0.011314
-0.003573
0.000254
0.000394
-0.002517
-0.007403
-0.012915
-0.017790
-0.020651
-0.021154
-0.019917
-0.017472
-0.014485
-0.011644
-0.009624
-0.009076
-0.010632
-0.014843
-0.022019
-0.032003
-0.044005
-0.056647
-0.068238
-0.077162
-0.082207
-0.082106
-0.077961
-0.070752
-0.061691
-0.051962
-0.042558
-0.034206
-0.027369
-0.022289
-0.019044
-0.017601
-0.017827
-0.019487
-0.022222
-0.025566
-0.028991
-0.031999
-0.034219
-0.035298
-0.035438
-0.034901
-0.034055
-0.033301
-0.033020
-0.033535
-0.036249
0.507508
0.510725
0.520016
0.535747
0.558323
0.587762
0.622627
0.657548
0.679082
0.662150
0.589180
0.495661
0.320509
0.000000
-0.451474
-0.497377
-0.535427
-0.585969
-0.609836
-0.578050
-0.512443
-0.429550
-0.342936
-0.263121
-0.197139
-0.147835
-0.112393
-0.089614
-0.075876
-0.066999
-0.060897
-0.058355
-0.060514
-0.068793
-0.084514
-0.107746
-0.136031
-0.164319
-0.186684
-0.198783
-0.195778
-0.180604
-0.159029
-0.133861
-0.107462
-0.081693
-0.057924
-0.037093
-0.019779
-0.006289
0.003254
0.008859
0.010690
0.009192
0.005204
-0.000079
-0.005357
-0.009507
-0.011585
-0.011863
-0.010825
-0.009121
-0.007456
-0.006547
-0.007106
-0.009819
-0.015253
-0.023680
-0.034850
-0.047865
-0.061252
-0.073247
-0.082199
-0.086365
-0.085292
-0.080117
-0.071896
-0.061897
-0.051333
-0.041201
-0.032214
-0.024806
-0.019185
-0.015398
-0.013387
-0.013009
-0.014030
-0.016103
-0.018771
-0.021512
-0.023818
-0.025292
-0.025588
-0.024745
-0.022948
-0.020482
-0.017661
-0.014775
-0.012055
-0.009454
0.500222
0.502645
0.509543
0.520870
0.536317
0.554826
0.573667
0.586859
0.583194
0.545016
0.454373
0.302148
0.145357
-0.300193
-0.574334
-0.514547
-0.561598
-0.629593
-0.636772
-0.591366
-0.511754
-0.414998
-0.314796
-0.221665
-0.142975
-0.082655
-0.040529
-0.013878
0.001004
0.004137
0.002717
-0.005016
-0.020183
-0.043608
-0.075391
-0.113676
-0.153881
-0.189449
-0.213881
-0.222929
-0.212366
-0.192106
-0.166100
-0.137418
-0.108391
-0.080710
-0.055534
-0.033598
-0.015306
-0.000821
0.009848
0.016772
0.020082
0.020064
0.017298
0.012731
0.007544
0.002834
-0.000355
-0.001801
-0.001906
-0.001286
-0.000646
-0.000735
-0.002316
-0.006110
-0.012683
-0.022250
-0.034465
-0.048325
-0.062270
-0.074470
-0.083237
-0.086274
-0.084517
-0.078693
-0.069931
-0.059512
-0.048627
-0.038235
-0.029007
-0.021339
-0.015405
-0.011235
-0.008761
-0.007845
-0.008264
-0.009686
-0.011671
-0.013701
-0.015262
-0.015930
-0.015405
-0.013552
-0.010506
-0.006469
-0.001670
0.003693
0.009486
0.017107
0.488437
0.489972
0.494242
0.500918
0.509235
0.517582
0.522840
0.519431
0.498270
0.445873
0.344339
0.169239
-0.131413
-0.745744
-0.634120
-0.531231
-0.564945
-0.607672
-0.596384
-0.545344
-0.466119
-0.371889
-0.274108
-0.181788
-0.101571
-0.037667
0.008940
0.040485
0.059738
0.065934
0.060683
0.044469
0.017368
-0.019788
-0.065256
-0.115216
-0.163530
-0.202910
-0.226960
-0.227390
-0.213165
-0.190082
-0.162211
-0.132558
-0.103246
-0.075706
-0.050853
-0.029221
-0.011067
0.003549
0.014696
0.022496
0.027083
0.028627
0.027467
0.024241
0.019884
0.015409
0.011728
0.009610
0.008739
0.008568
0.008411
0.007504
0.005054
0.000322
-0.007233
-0.017749
-0.030783
-0.045238
-0.059479
-0.071602
-0.079782
-0.082045
-0.079883
-0.073914
-0.065224
-0.055028
-0.044435
-0.034319
-0.025281
-0.017668
-0.011633
-0.007203
-0.004325
-0.002883
-0.002681
-0.003417
-0.004668
-0.005932
-0.006696
-0.006522
-0.005121
-0.002263
0.001991
0.007509
0.014146
0.021799
0.030436
0.042730
0.473801
0.474478
0.476250
0.478642
0.480692
0.480649
0.475545
0.460658
0.428954
0.370594
0.272349
0.116642
-0.119498
-0.419614
-0.482749
-0.487903
-0.511659
-0.522626
-0.506160
-0.462150
-0.396492
-0.318018
-0.235349
-0.155644
-0.084232
-0.024417
0.022697
0.057590
0.080314
0.095351
0.093076
0.073119
0.039215
-0.005829
-0.058450
-0.113293
-0.163351
-0.201370
-0.218434
-0.214211
-0.198526
-0.175579
-0.148910
-0.121116
-0.093957
-0.068563
-0.045619
-0.025509
-0.008413
0.005636
0.016718
0.024973
0.030546
0.033570
0.034228
0.032881
0.030141
0.026782
0.023539
0.021404
0.020230
0.019610
0.018926
0.017425
0.014309
0.008848
0.000550
-0.010641
-0.024186
-0.038915
-0.053155
-0.065025
-0.071852
-0.074058
-0.072059
-0.066584
-0.058658
-0.049369
-0.039686
-0.030358
-0.021897
-0.014603
-0.008618
-0.003990
-0.000707
0.001301
0.002189
0.002223
0.001793
0.001381
0.001487
0.002547
0.004862
0.008706
0.014096
0.020966
0.029254
0.038950
0.050142
0.066717
0.457905
0.457827
0.457434
0.456222
0.453224
0.446814
0.434462
0.412462
0.375741
0.317825
0.231110
0.108177
-0.052738
-0.229762
-0.328927
-0.378773
-0.408745
-0.417505
-0.405946
-0.374404
-0.326131
-0.266804
-0.202531
-0.138736
-0.079631
-0.027988
0.014874
0.048667
0.074635
0.091352
0.090902
0.073144
0.040247
-0.004148
-0.055157
-0.106525
-0.150904
-0.181084
-0.190028
-0.185545
-0.171672
-0.152010
-0.129425
-0.105966
-0.082984
-0.061314
-0.041455
-0.023708
-0.008249
0.004838
0.015558
0.023990
0.030259
0.034493
0.036829
0.037465
0.036752
0.035145
0.033588
0.032217
0.031285
0.030624
0.029736
0.027920
0.024404
0.018499
0.009776
-0.001741
-0.015431
-0.030065
-0.043958
-0.054870
-0.061218
-0.063639
-0.062346
-0.058011
-0.051511
-0.043741
-0.035479
-0.027325
-0.019698
-0.012862
-0.006977
-0.002138
0.001603
0.004255
0.005917
0.006814
0.007304
0.007839
0.008893
0.010890
0.014131
0.018934
0.025363
0.033420
0.043121
0.054556
0.067946
0.088350
0.442148
0.441445
0.439286
0.435220
0.428401
0.417469
0.400425
0.374550
0.336428
0.282179
0.208114
0.112246
-0.002208
-0.121416
-0.211115
-0.270056
-0.305969
-0.321252
-0.318193
-0.298900
-0.265976
-0.223356
-0.175399
-0.126166
-0.078979
-0.036207
0.000759
0.031329
0.055570
0.069418
0.069851
0.056068
0.029278
-0.007509
-0.049622
-0.091008
-0.124994
-0.144396
-0.151376
-0.148655
-0.138850
-0.124545
-0.107836
-0.090214
-0.072627
-0.055624
-0.039528
-0.024570
-0.010963
0.001101
0.011478
0.020110
0.027023
0.032297
0.036045
0.038396
0.039626
0.040404
0.040730
0.040646
0.040503
0.040266
0.039559
0.037766
0.034186
0.028191
0.019419
0.007959
-0.005499
-0.019676
-0.032772
-0.042729
-0.049298
-0.052412
-0.052377
-0.049753
-0.045196
-0.039355
-0.032795
-0.025968
-0.019218
-0.012810
-0.006949
-0.001813
0.002468
0.005838
0.008341
0.010161
0.011624
0.013153
0.015191
0.018138
0.022317
0.028018
0.035361
0.044408
0.055243
0.068047
0.083181
0.106866
0.427691
0.426477
0.422911
0.416658
0.407060
0.393066
0.373196
0.345560
0.307983
0.258320
0.195064
0.118414
0.031947
-0.055787
-0.130180
-0.185951
-0.223463
-0.243771
-0.248262
-0.238841
-0.217831
-0.188190
-0.153148
-0.115795
-0.078777
-0.044126
-0.013235
0.013037
0.033400
0.045345
0.047117
0.038053
0.018963
-0.007776
-0.038324
-0.067788
-0.091044
-0.105489
-0.112073
-0.111884
-0.106619
-0.098019
-0.087527
-0.076131
-0.064369
-0.052441
-0.040404
-0.028353
-0.016528
-0.005279
0.005035
0.014146
0.021911
0.028299
0.033400
0.037507
0.040784
0.043200
0.044951
0.046228
0.047174
0.047714
0.047526
0.046090
0.042793
0.037081
0.028640
0.017579
0.004643
-0.008833
-0.021044
-0.030905
-0.037931
-0.042143
-0.043803
-0.043257
-0.040877
-0.037048
-0.032138
-0.026484
-0.020399
-0.014206
-0.008177
-0.002625
0.002245
0.006356
0.009702
0.012425
0.014822
0.017289
0.020245
0.024081
0.029116
0.035604
0.043705
0.053521
0.065174
0.078904
0.095190
0.121404
0.415479
0.413820
0.409091
0.401141
0.389534
0.373518
0.352046
0.323859
0.287639
0.242298
0.187430
0.123958
0.054880
-0.014325
-0.076224
-0.126229
-0.162688
-0.185437
-0.195086
-0.192807
-0.180508
-0.160480
-0.135199
-0.107073
-0.078238
-0.050439
-0.025018
-0.003008
0.014190
0.025042
0.028426
0.023918
0.012114
-0.005251
-0.025416
-0.045016
-0.061212
-0.072403
-0.078508
-0.080198
-0.078593
-0.074884
-0.070038
-0.064616
-0.058706
-0.052023
-0.044163
-0.034945
-0.024605
-0.013725
-0.003000
0.007018
0.015968
0.023761
0.030452
0.036023
0.040608
0.044338
0.047369
0.049841
0.051816
0.053189
0.053670
0.052812
0.050075
0.044954
0.037137
0.026627
0.014183
0.001071
-0.010986
-0.021042
-0.028783
-0.034331
-0.037856
-0.039408
-0.039030
-0.036879
-0.033194
-0.028263
-0.022419
-0.016158
-0.009693
-0.003600
0.001882
0.006648
0.010688
0.014151
0.017307
0.020522
0.024193
0.028698
0.034360
0.041444
0.050114
0.060465
0.072601
0.086745
0.103396
0.130878
0.406340
0.404185
0.398343
0.388964
0.375843
0.358468
0.336115
0.307963
0.273247
0.231489
0.182806
0.128287
0.070315
0.012606
-0.040364
-0.085097
-0.119613
-0.143176
-0.155928
-0.158493
-0.152333
-0.139240
-0.121161
-0.100013
-0.077540
-0.055225
-0.034287
-0.015745
-0.000771
0.009557
0.014470
0.013690
0.007630
-0.002510
-0.014893
-0.027436
-0.038551
-0.046715
-0.051851
-0.054456
-0.055372
-0.055495
-0.055489
-0.055576
-0.055392
-0.054031
-0.050378
-0.043746
-0.034354
-0.023173
-0.011455
-0.000048
0.010373
0.019636
0.027662
0.034515
0.040315
0.045199
0.049307
0.052744
0.055544
0.057627
0.058765
0.058574
0.056556
0.052181
0.044943
0.034533
0.021803
0.008431
-0.004045
-0.014579
-0.023015
-0.029718
-0.034843
-0.038084
-0.039082
-0.037861
-0.034731
-0.029980
-0.023719
-0.017193
-0.010629
-0.004135
0.001912
0.007255
0.011869
0.015889
0.019553
0.023201
0.027231
0.032042
0.038011
0.045439
0.054476
0.065151
0.077460
0.091494
0.107555
0.133806
0.401202
0.398174
0.390954
0.380177
0.365807
0.347457
0.324594
0.296673
0.263262
0.224219
0.179896
0.131358
0.080526
0.030108
-0.016802
-0.057495
-0.090088
-0.113679
-0.128155
-0.133852
-0.131875
-0.123651
-0.110754
-0.094745
-0.077060
-0.058945
-0.041450
-0.025456
-0.011886
-0.001664
0.004602
0.006660
0.004761
-0.000242
-0.007059
-0.014801
-0.021773
-0.027278
-0.031269
-0.034198
-0.036790
-0.039785
-0.043666
-0.048439
-0.053430
-0.057155
-0.057565
-0.053099
-0.043924
-0.031550
-0.018575
-0.005888
0.006023
0.016695
0.026003
0.034005
0.040839
0.046652
0.051578
0.055707
0.059079
0.061678
0.063385
0.063869
0.062619
0.058514
0.051088
0.040426
0.026958
0.012351
-0.001219
-0.012270
-0.020822
-0.027805
-0.033694
-0.037906
-0.039495
-0.038168
-0.034571
-0.029897
-0.024245
-0.017472
-0.010506
-0.003732
0.002585
0.008280
0.013276
0.017684
0.021630
0.025403
0.029429
0.034162
0.040073
0.047601
0.056875
0.067770
0.080063
0.093617
0.108363
0.129505
0.401707
0.396244
0.386899
0.374582
0.359117
0.340025
0.316822
0.289113
0.256651
0.219464
0.178000
0.133258
0.086849
0.040917
-0.002143
-0.040105
-0.071155
-0.094586
-0.109978
-0.117584
-0.118275
-0.113237
-0.103793
-0.091267
-0.076875
-0.061689
-0.046627
-0.032481
-0.019742
-0.009294
-0.001835
0.002334
0.003271
0.001710
-0.001748
-0.006142
-0.010434
-0.014176
-0.017382
-0.020467
-0.024069
-0.028807
-0.035043
-0.042688
-0.051038
-0.058516
-0.062439
-0.059667
-0.049759
-0.037422
-0.023233
-0.009046
0.004135
0.015877
0.026090
0.034866
0.042365
0.048745
0.054128
0.058584
0.062152
0.064928
0.067034
0.067668
0.066259
0.062432
0.055278
0.044253
0.029663
0.013357
-0.001705
-0.013224
-0.021137
-0.027031
-0.032109
-0.036107
-0.037960
-0.037113
-0.034114
-0.029152
-0.023212
-0.016562
-0.009685
-0.002959
0.003383
0.009284
0.014493
0.018981
0.022985
0.026818
0.030806
0.035370
0.041024
0.048305
0.057646
0.068816
0.081097
0.094198
0.107798
0.123769
0.412331
0.398033
0.385592
0.371922
0.355641
0.336042
0.312636
0.285059
0.253135
0.216953
0.176980
0.134153
0.089922
0.046167
0.004965
-0.031758
-0.062584
-0.086099
-0.101865
-0.110251
-0.112047
-0.108332
-0.100321
-0.089236
-0.076214
-0.062265
-0.048271
-0.035025
-0.023276
-0.013063
-0.004958
0.000308
0.002481
0.001716
-0.000904
-0.004183
-0.007527
-0.010593
-0.013418
-0.016385
-0.020074
-0.025036
-0.031562
-0.039490
-0.048066
-0.055794
-0.060375
-0.059440
-0.052042
-0.038766
-0.023775
-0.009038
0.004535
0.016584
0.027052
0.036041
0.043711
0.050214
0.055656
0.060083
0.063499
0.065872
0.067081
0.067307
0.065809
0.061936
0.054968
0.044421
0.030527
0.014770
-0.000283
-0.012337
-0.020835
-0.026824
-0.031417
-0.034759
-0.036325
-0.035737
-0.032871
-0.028193
-0.022389
-0.015922
-0.009222
-0.002651
0.003548
0.009171
0.014342
0.018973
0.023178
0.027216
0.031420
0.036190
0.041994
0.049303
0.058396
0.069217
0.081415
0.094402
0.107950
0.123183
