# vtk DataFile Version 3.0
Scalar Field
ASCII
DATASET RECTILINEAR_GRID
DIMENSIONS 100 26 1
X_COORDINATES 100 double
0.050000 0.150000 0.250000 0.350000 0.450000 0.550000 0.650000 0.750000 0.850000 0.950000 1.050000 1.150000 1.250000 1.350000 1.450000 1.550000 1.650000 1.750000 1.850000 1.950000 2.050000 2.150000 2.250000 2.350000 2.450000 2.550000 2.650000 2.750000 2.850000 2.950000 3.050000 3.150000 3.250000 3.350000 3.450000 3.550000 3.650000 3.750000 3.850000 3.950000 4.050000 4.150000 4.250000 4.350000 4.450000 4.550000 4.650000 4.750000 4.850000 4.950000 5.050000 5.150000 5.250000 5.350000 5.450000 5.550000 5.650000 5.750000 5.850000 5.950000 6.050000 6.150000 6.250000 6.350000 6.450000 6.550000 6.650000 6.750000 6.850000 6.950000 7.050000 7.150000 7.250000 7.350000 7.450000 7.550000 7.650000 7.750000 7.850000 7.950000 8.050000 8.150000 8.250000 8.350000 8.450000 8.550000 8.650000 8.750000 8.850000 8.950000 9.050000 9.150000 9.250000 9.350000 9.450000 9.550000 9.650000 9.750000 9.850000 9.950000 
Y_COORDINATES 26 double
0.050000 0.150000 0.250000 0.350000 0.450000 0.550000 0.650000 0.750000 0.850000 0.950000 1.050000 1.150000 1.250000 1.350000 1.450000 1.550000 1.650000 1.750000 1.850000 1.950000 2.050000 2.150000 2.250000 2.350000 2.450000 2.550000 
Z_COORDINATES 1 double
0.0
POINT_DATA 2600
SCALARS Skalarfeld double 1
LOOKUP_TABLE default
0.204977
0.201286
0.193598
0.181494
0.164704
0.143053
0.116530
0.085392
0.050276
0.012247
-0.027272
-0.066727
-0.104685
-0.139990
-0.171787
-0.199463
-0.222548
-0.240646
-0.253425
-0.260550
-0.261875
-0.257584
-0.248141
-0.234276
-0.216908
-0.197054
-0.175721
-0.153817
-0.132095
-0.111124
-0.091292
-0.072834
-0.055885
-0.040539
-0.026933
-0.015106
-0.005341
0.001923
0.006285
0.007548
0.005916
0.002063
-0.002951
-0.007936
-0.011904
-0.013999
-0.013957
-0.011969
-0.008442
-0.003883
0.001192
0.006328
0.011163
0.015445
0.019029
0.021871
0.024010
0.025545
0.026610
0.027348
0.027882
0.028305
0.028676
0.029023
0.029356
0.029677
0.029977
0.030312
0.030670
0.031060
0.031500
0.032007
0.032597
0.033273
0.034032
0.034862
0.035745
0.036660
0.037584
0.038495
0.039376
0.040212
0.040996
0.041721
0.042389
0.043004
0.043572
0.044103
0.044607
0.045096
0.045583
0.046079
0.046596
0.047145
0.047736
0.048378
0.049073
0.049817
0.050586
0.051733
0.208027
0.205208
0.197780
0.185679
0.168678
0.146556
0.119236
0.086943
0.050360
0.010710
-0.030324
-0.070963
-0.109691
-0.145397
-0.177353
-0.205085
-0.228228
-0.246428
-0.259315
-0.266531
-0.267813
-0.263288
-0.253409
-0.238928
-0.220814
-0.200142
-0.177975
-0.155266
-0.132799
-0.111160
-0.090745
-0.071788
-0.054411
-0.038682
-0.024657
-0.012610
-0.002882
0.004127
0.008024
0.008640
0.006217
0.001502
-0.004341
-0.009993
-0.014283
-0.016530
-0.016458
-0.014295
-0.010510
-0.005662
-0.000303
0.005092
0.010154
0.014629
0.018379
0.021365
0.023630
0.025278
0.026446
0.027274
0.027884
0.028368
0.028779
0.029146
0.029482
0.029799
0.030119
0.030414
0.030719
0.031061
0.031461
0.031941
0.032512
0.033178
0.033935
0.034767
0.035656
0.036579
0.037511
0.038430
0.039318
0.040159
0.040945
0.041672
0.042340
0.042953
0.043518
0.044045
0.044545
0.045030
0.045511
0.046002
0.046514
0.047059
0.047649
0.048293
0.049000
0.049781
0.050652
0.052014
0.216237
0.213655
0.206394
0.194269
0.176927
0.153969
0.125124
0.090494
0.050824
0.007666
-0.036631
-0.079757
-0.120026
-0.156481
-0.188696
-0.216510
-0.239787
-0.258265
-0.271534
-0.279068
-0.280357
-0.275428
-0.264701
-0.248974
-0.229319
-0.206931
-0.182986
-0.158529
-0.134413
-0.111270
-0.089524
-0.069423
-0.051092
-0.034596
-0.020011
-0.007637
0.002108
0.008727
0.011755
0.011017
0.006847
0.000185
-0.007539
-0.014713
-0.019969
-0.022560
-0.022354
-0.019752
-0.015363
-0.009855
-0.003844
0.002160
0.007778
0.012757
0.016965
0.020370
0.023015
0.025002
0.026459
0.027519
0.028298
0.028883
0.029334
0.029687
0.029966
0.030195
0.030395
0.030585
0.030791
0.031046
0.031379
0.031810
0.032351
0.033003
0.033757
0.034598
0.035501
0.036441
0.037391
0.038326
0.039226
0.040077
0.040869
0.041598
0.042264
0.042873
0.043432
0.043951
0.044441
0.044916
0.045386
0.045866
0.046366
0.046901
0.047483
0.048124
0.048838
0.049645
0.050572
0.052006
0.229157
0.226695
0.219619
0.207548
0.189866
0.165815
0.134717
0.096347
0.051463
0.002162
-0.047677
-0.094691
-0.137060
-0.174264
-0.206510
-0.234223
-0.257658
-0.276665
-0.290667
-0.298813
-0.300238
-0.294741
-0.282676
-0.264943
-0.242804
-0.217669
-0.190905
-0.163706
-0.137028
-0.111573
-0.087807
-0.066001
-0.046283
-0.028696
-0.013272
-0.000327
0.009549
0.015662
0.017369
0.014459
0.007419
-0.002486
-0.013355
-0.023047
-0.029723
-0.032522
-0.031854
-0.028359
-0.022874
-0.016231
-0.009143
-0.002159
0.004332
0.010091
0.014998
0.019027
0.022227
0.024693
0.026545
0.027905
0.028887
0.029579
0.030053
0.030360
0.030544
0.030642
0.030695
0.030738
0.030812
0.030955
0.031202
0.031574
0.032079
0.032717
0.033477
0.034337
0.035268
0.036239
0.037221
0.038185
0.039108
0.039976
0.040779
0.041512
0.042178
0.042781
0.043331
0.043837
0.044313
0.044771
0.045224
0.045684
0.046166
0.046682
0.047246
0.047872
0.048578
0.049384
0.050317
0.051740
0.246559
0.244268
0.237578
0.225878
0.208149
0.183027
0.149047
0.105212
0.052037
-0.007709
-0.066297
-0.118529
-0.162914
-0.200098
-0.231512
-0.258573
-0.282147
-0.302205
-0.317722
-0.327127
-0.329080
-0.322907
-0.308882
-0.288125
-0.262262
-0.233071
-0.202218
-0.171110
-0.140841
-0.112194
-0.085682
-0.061597
-0.040065
-0.021093
-0.004605
0.009176
0.019347
0.024907
0.024901
0.019080
0.008141
-0.006263
-0.021670
-0.035198
-0.044228
-0.047178
-0.045551
-0.040487
-0.033208
-0.024800
-0.016107
-0.007721
-0.000022
0.006774
0.012574
0.017377
0.021239
0.024259
0.026554
0.028244
0.029442
0.030246
0.030741
0.030996
0.031074
0.031032
0.030924
0.030806
0.030728
0.030741
0.030884
0.031191
0.031661
0.032293
0.033070
0.033964
0.034941
0.035963
0.036994
0.038002
0.038962
0.039856
0.040675
0.041416
0.042081
0.042678
0.043215
0.043706
0.044162
0.044597
0.045025
0.045459
0.045913
0.046400
0.046935
0.047533
0.048211
0.048990
0.049894
0.051259
0.268128
0.266154
0.260277
0.249622
0.232645
0.207053
0.169950
0.118576
0.052309
-0.025929
-0.097687
-0.155438
-0.200031
-0.234840
-0.263393
-0.288603
-0.312238
-0.334424
-0.353282
-0.365460
-0.368920
-0.362151
-0.345382
-0.320239
-0.289026
-0.254122
-0.217629
-0.181235
-0.146191
-0.113364
-0.083306
-0.056334
-0.032591
-0.012080
0.005360
0.020040
0.030690
0.035866
0.034104
0.025238
0.010288
-0.008784
-0.029181
-0.047508
-0.060360
-0.065280
-0.062473
-0.055398
-0.045804
-0.035136
-0.024413
-0.014280
-0.005107
0.002926
0.009767
0.015442
0.020031
0.023643
0.026400
0.028428
0.029848
0.030769
0.031289
0.031496
0.031469
0.031282
0.031007
0.030714
0.030471
0.030339
0.030371
0.030604
0.031047
0.031685
0.032498
0.033451
0.034499
0.035597
0.036700
0.037771
0.038782
0.039713
0.040556
0.041309
0.041975
0.042564
0.043086
0.043556
0.043986
0.044393
0.044789
0.045189
0.045606
0.046055
0.046549
0.047104
0.047737
0.048466
0.049313
0.050587
0.293280
0.291852
0.287458
0.278989
0.264336
0.239975
0.200605
0.139612
0.052173
-0.061353
-0.150819
-0.210286
-0.249495
-0.276995
-0.298967
-0.320104
-0.343363
-0.369331
-0.395213
-0.413961
-0.421016
-0.414156
-0.393770
-0.362589
-0.324111
-0.281624
-0.237811
-0.194681
-0.153644
-0.115631
-0.081221
-0.050764
-0.024478
-0.002497
0.015217
0.029700
0.040746
0.045886
0.042574
0.031190
0.013394
-0.008590
-0.032065
-0.053842
-0.070554
-0.079605
-0.078044
-0.069628
-0.058131
-0.045452
-0.032839
-0.021028
-0.010404
-0.001133
0.006756
0.013312
0.018630
0.022830
0.026044
0.028404
0.030042
0.031078
0.031626
0.031786
0.031654
0.031318
0.030865
0.030384
0.029959
0.029668
0.029578
0.029736
0.030163
0.030828
0.031706
0.032752
0.033909
0.035117
0.036323
0.037482
0.038563
0.039545
0.040421
0.041190
0.041858
0.042438
0.042943
0.043387
0.043788
0.044159
0.044517
0.044875
0.045247
0.045647
0.046089
0.046588
0.047158
0.047818
0.048586
0.049741
0.321009
0.320415
0.318369
0.313699
0.303940
0.284356
0.246272
0.175302
0.051796
-0.134788
-0.239056
-0.284661
-0.307337
-0.320519
-0.331087
-0.344952
-0.366216
-0.396551
-0.433658
-0.467322
-0.482372
-0.476856
-0.452329
-0.413757
-0.366507
-0.315062
-0.262754
-0.211907
-0.164060
-0.120189
-0.080889
-0.046548
-0.017513
0.005745
0.022738
0.033640
0.042043
0.047439
0.042388
0.029187
0.010937
-0.010215
-0.032442
-0.053516
-0.070766
-0.081685
-0.084891
-0.077765
-0.066035
-0.052676
-0.039184
-0.026433
-0.014882
-0.004733
0.003959
0.011231
0.017165
0.021877
0.025493
0.028151
0.029984
0.031123
0.031689
0.031796
0.031549
0.031049
0.030400
0.029707
0.029077
0.028609
0.028389
0.028475
0.028900
0.029624
0.030614
0.031806
0.033124
0.034491
0.035841
0.037121
0.038296
0.039347
0.040266
0.041057
0.041730
0.042300
0.042784
0.043200
0.043565
0.043897
0.044209
0.044518
0.044837
0.045180
0.045559
0.045988
0.046482
0.047055
0.047725
0.048737
0.349791
0.350306
0.351492
0.352438
0.350978
0.342147
0.314471
0.241497
0.056218
-0.299021
-0.374141
-0.365769
-0.360365
-0.355680
-0.352346
-0.356824
-0.373627
-0.405295
-0.452171
-0.505971
-0.539998
-0.538683
-0.511056
-0.465721
-0.410358
-0.350656
-0.290516
-0.232520
-0.178340
-0.129028
-0.085240
-0.047436
-0.016150
0.007621
0.022412
0.028267
0.028306
0.025694
0.019376
0.008883
-0.004480
-0.019629
-0.035660
-0.051343
-0.064927
-0.074443
-0.078348
-0.076142
-0.066358
-0.054165
-0.041324
-0.028851
-0.017309
-0.006985
0.001997
0.009612
0.015899
0.020935
0.024825
0.027690
0.029658
0.030858
0.031412
0.031438
0.031047
0.030351
0.029467
0.028524
0.027654
0.026986
0.026628
0.026656
0.027105
0.027949
0.029127
0.030546
0.032101
0.033691
0.035237
0.036678
0.037977
0.039114
0.040089
0.040908
0.041588
0.042148
0.042610
0.042994
0.043319
0.043605
0.043867
0.044121
0.044379
0.044656
0.044962
0.045311
0.045714
0.046187
0.046743
0.047588
0.377598
0.379378
0.384337
0.392229
0.402174
0.411323
0.410643
0.370061
0.152121
-0.618634
-0.532996
-0.412085
-0.389382
-0.376251
-0.363952
-0.363573
-0.378359
-0.407765
-0.454540
-0.513996
-0.567503
-0.578779
-0.551200
-0.503161
-0.444069
-0.380308
-0.316058
-0.254109
-0.196344
-0.144060
-0.098245
-0.059934
-0.030555
-0.011622
-0.003462
-0.003979
-0.009015
-0.015718
-0.020881
-0.025704
-0.030906
-0.036776
-0.043421
-0.050589
-0.057472
-0.062801
-0.065246
-0.063937
-0.058796
-0.049103
-0.038253
-0.027269
-0.016765
-0.007106
0.001497
0.008937
0.015180
0.020245
0.024190
0.027102
0.029087
0.030258
0.030728
0.030609
0.030010
0.029051
0.027867
0.026612
0.025456
0.024565
0.024078
0.024087
0.024631
0.025704
0.027191
0.028947
0.030831
0.032719
0.034516
0.036157
0.037606
0.038848
0.039888
0.040742
0.041431
0.041981
0.042418
0.042766
0.043048
0.043285
0.043492
0.043684
0.043876
0.044080
0.044305
0.044564
0.044867
0.045226
0.045653
0.046313
0.402130
0.405090
0.413622
0.428307
0.450121
0.480327
0.519833
0.565792
0.654104
0.017735
-0.462351
-0.391706
-0.394283
-0.389262
-0.384152
-0.385072
-0.397086
-0.420185
-0.458189
-0.508959
-0.557542
-0.580953
-0.558035
-0.512505
-0.455943
-0.394503
-0.332138
-0.271715
-0.215400
-0.164942
-0.121986
-0.088350
-0.065847
-0.055174
-0.054499
-0.059504
-0.065608
-0.069783
-0.069254
-0.066029
-0.061648
-0.057236
-0.053629
-0.051316
-0.050286
-0.049969
-0.049406
-0.047625
-0.044030
-0.038320
-0.030215
-0.021552
-0.012903
-0.004660
0.002907
0.009618
0.015360
0.020085
0.023792
0.026521
0.028340
0.029334
0.029592
0.029210
0.028291
0.026959
0.025372
0.023724
0.022235
0.021123
0.020562
0.020653
0.021458
0.022931
0.024874
0.027086
0.029387
0.031633
0.033722
0.035589
0.037204
0.038559
0.039669
0.040558
0.041255
0.041794
0.042204
0.042515
0.042752
0.042935
0.043083
0.043212
0.043333
0.043457
0.043596
0.043758
0.043951
0.044186
0.044473
0.044927
0.421242
0.425026
0.436037
0.455380
0.485161
0.529028
0.593307
0.688564
0.819263
0.840025
0.000000
-0.395548
-0.399390
-0.403203
-0.407644
-0.415374
-0.426841
-0.443823
-0.468430
-0.499140
-0.527498
-0.539517
-0.528425
-0.488138
-0.438980
-0.385548
-0.331001
-0.278056
-0.229059
-0.186185
-0.151684
-0.127833
-0.115984
-0.114876
-0.120189
-0.126479
-0.129676
-0.126612
-0.117548
-0.104828
-0.090471
-0.076088
-0.062911
-0.051811
-0.043238
-0.037136
-0.032937
-0.029743
-0.026639
-0.022961
-0.018244
-0.012245
-0.005915
0.000395
0.006410
0.011905
0.016710
0.020714
0.023856
0.026125
0.027542
0.028153
0.028013
0.027194
0.025787
0.023930
0.021817
0.019702
0.017874
0.016607
0.016106
0.016472
0.017801
0.019865
0.022398
0.025151
0.027920
0.030550
0.032939
0.035032
0.036806
0.038268
0.039441
0.040360
0.041061
0.041585
0.041967
0.042238
0.042427
0.042556
0.042644
0.042705
0.042753
0.042796
0.042843
0.042902
0.042980
0.043083
0.043220
0.043454
0.433437
0.437516
0.449369
0.470084
0.501588
0.546670
0.608558
0.688683
0.780765
0.860787
0.766416
0.000000
-0.408469
-0.417549
-0.431426
-0.449867
-0.468265
-0.481945
-0.488748
-0.490859
-0.488353
-0.476793
-0.460464
-0.430528
-0.390537
-0.348126
-0.305274
-0.264375
-0.227798
-0.198047
-0.177755
-0.168887
-0.170940
-0.179865
-0.189574
-0.194770
-0.192140
-0.179095
-0.160003
-0.137295
-0.113300
-0.089919
-0.068565
-0.050206
-0.035409
-0.024330
-0.016672
-0.011704
-0.008436
-0.005893
-0.003343
-0.000237
0.003659
0.007788
0.011933
0.015867
0.019386
0.022333
0.024599
0.026122
0.026876
0.026860
0.026091
0.024613
0.022519
0.019972
0.017230
0.014628
0.012534
0.011267
0.011021
0.012008
0.014079
0.016870
0.020065
0.023385
0.026615
0.029606
0.032265
0.034550
0.036455
0.037999
0.039217
0.040152
0.040849
0.041352
0.041701
0.041932
0.042073
0.042148
0.042175
0.042169
0.042142
0.042102
0.042056
0.042009
0.041968
0.041934
0.041915
0.041916
0.438176
0.442023
0.453126
0.472214
0.500463
0.539364
0.589846
0.649812
0.705780
0.719924
0.672046
0.548083
0.000000
-0.437017
-0.456486
-0.499789
-0.531401
-0.542103
-0.523765
-0.488057
-0.447380
-0.408597
-0.374291
-0.340876
-0.310960
-0.280119
-0.250211
-0.224106
-0.204282
-0.193316
-0.193326
-0.204340
-0.222693
-0.241707
-0.254627
-0.257274
-0.244675
-0.222009
-0.193061
-0.160994
-0.128475
-0.097572
-0.069731
-0.045861
-0.026432
-0.011571
-0.001069
0.005644
0.009470
0.011473
0.012638
0.013686
0.015123
0.017049
0.019215
0.021414
0.023430
0.025079
0.026216
0.026739
0.026576
0.025680
0.024032
0.021662
0.018679
0.015307
0.011889
0.008861
0.006658
0.005622
0.005945
0.007835
0.010758
0.014321
0.018168
0.022010
0.025638
0.028918
0.031780
0.034198
0.036185
0.037772
0.039006
0.039937
0.040616
0.041092
0.041407
0.041596
0.041689
0.041711
0.041679
0.041608
0.041507
0.041385
0.041246
0.041093
0.040931
0.040759
0.040580
0.040342
0.435885
0.439163
0.448539
0.464348
0.486974
0.516375
0.551123
0.586041
0.607958
0.591410
0.518481
0.424121
0.246953
0.000000
-0.514386
-0.572287
-0.609590
-0.610774
-0.560311
-0.484914
-0.406006
-0.336421
-0.281375
-0.239505
-0.209305
-0.187635
-0.169447
-0.159739
-0.160499
-0.173256
-0.197946
-0.231244
-0.266193
-0.294381
-0.309107
-0.306474
-0.284005
-0.252046
-0.214484
-0.174782
-0.135739
-0.099404
-0.067113
-0.039598
-0.017138
0.000295
0.012942
0.021261
0.025972
0.028026
0.028452
0.028142
0.027705
0.027600
0.027876
0.028346
0.028793
0.029022
0.028869
0.028198
0.026900
0.024890
0.022126
0.018647
0.014612
0.010333
0.006269
0.002946
0.000841
0.000238
0.001567
0.004446
0.008243
0.012528
0.016935
0.021187
0.025097
0.028560
0.031529
0.034002
0.036008
0.037593
0.038810
0.039715
0.040364
0.040805
0.041081
0.041229
0.041277
0.041248
0.041161
0.041027
0.040856
0.040654
0.040424
0.040168
0.039887
0.039578
0.039240
0.038763
0.427595
0.430067
0.437041
0.448450
0.463956
0.482475
0.501295
0.514531
0.511098
0.473290
0.382807
0.229064
0.069786
-0.385415
-0.680862
-0.620475
-0.658158
-0.637181
-0.565393
-0.465973
-0.361269
-0.268617
-0.196763
-0.144510
-0.108045
-0.087130
-0.079048
-0.085916
-0.108819
-0.146534
-0.195508
-0.248980
-0.297700
-0.332511
-0.347318
-0.334431
-0.305218
-0.266401
-0.222836
-0.178267
-0.135468
-0.096320
-0.061936
-0.032806
-0.008979
0.009775
0.023810
0.033535
0.039466
0.042290
0.042848
0.042005
0.040476
0.038786
0.037465
0.036387
0.035345
0.034151
0.032640
0.030656
0.028059
0.024742
0.020666
0.015912
0.010725
0.005539
0.000931
-0.002492
-0.004238
-0.004048
-0.001511
0.002293
0.006849
0.011704
0.016500
0.020993
0.025032
0.028544
0.031512
0.033955
0.035918
0.037454
0.038622
0.039482
0.040088
0.040489
0.040726
0.040833
0.040839
0.040765
0.040626
0.040434
0.040198
0.039921
0.039605
0.039250
0.038854
0.038413
0.037921
0.037212
0.414768
0.416346
0.420707
0.427499
0.435926
0.444358
0.449684
0.446376
0.425422
0.373392
0.272253
0.096601
-0.208136
-0.840617
-0.741250
-0.640525
-0.626394
-0.588272
-0.513292
-0.414764
-0.310228
-0.214932
-0.137641
-0.078601
-0.034292
-0.006206
-0.003223
-0.023869
-0.066031
-0.124015
-0.190854
-0.257545
-0.313851
-0.350573
-0.360030
-0.340501
-0.306590
-0.264172
-0.218116
-0.172093
-0.128670
-0.089464
-0.055328
-0.026534
-0.002944
0.015830
0.030281
0.040889
0.048068
0.052232
0.053894
0.053663
0.052140
0.049795
0.047378
0.045113
0.042792
0.040281
0.037435
0.034092
0.030099
0.025350
0.019844
0.013740
0.007411
0.001426
-0.003532
-0.006820
-0.007999
-0.006330
-0.002881
0.001669
0.006755
0.011932
0.016883
0.021408
0.025401
0.028823
0.031684
0.034020
0.035883
0.037333
0.038429
0.039230
0.039786
0.040145
0.040343
0.040414
0.040382
0.040267
0.040083
0.039839
0.039543
0.039197
0.038801
0.038354
0.037851
0.037285
0.036650
0.035721
0.399028
0.399753
0.401656
0.404234
0.406491
0.406653
0.401755
0.387106
0.355740
0.297910
0.200455
0.045535
-0.190927
-0.496443
-0.562242
-0.553918
-0.533505
-0.495575
-0.434302
-0.355495
-0.270104
-0.188611
-0.117670
-0.059139
-0.013420
0.021962
0.030167
0.003307
-0.048022
-0.114658
-0.187702
-0.257147
-0.312564
-0.345272
-0.344833
-0.323542
-0.288910
-0.246934
-0.202253
-0.158226
-0.117102
-0.080223
-0.048233
-0.021266
0.000893
0.018669
0.032596
0.043213
0.050993
0.056307
0.059431
0.060608
0.060180
0.058479
0.056342
0.053588
0.050404
0.046831
0.042796
0.038159
0.032783
0.026598
0.019680
0.012314
0.005017
-0.001503
-0.006491
-0.009348
-0.009262
-0.006492
-0.002319
0.002668
0.007950
0.013138
0.017976
0.022316
0.026094
0.029303
0.031969
0.034136
0.035861
0.037201
0.038213
0.038948
0.039454
0.039772
0.039937
0.039976
0.039912
0.039763
0.039540
0.039251
0.038902
0.038495
0.038027
0.037496
0.036895
0.036217
0.035449
0.034321
0.381931
0.381920
0.381729
0.380817
0.378175
0.372150
0.360210
0.338681
0.302565
0.245514
0.160110
0.039124
-0.119087
-0.293533
-0.386475
-0.420182
-0.420754
-0.397441
-0.355651
-0.299671
-0.236542
-0.173302
-0.115095
-0.064685
-0.021816
0.008848
0.013777
-0.009579
-0.056158
-0.117722
-0.184574
-0.246302
-0.292638
-0.314405
-0.309692
-0.288914
-0.257138
-0.219247
-0.179185
-0.139827
-0.103092
-0.070112
-0.041421
-0.017115
0.003002
0.019309
0.032280
0.042410
0.050152
0.055874
0.059833
0.062190
0.063136
0.063686
0.062578
0.060139
0.056752
0.052623
0.047769
0.042105
0.035556
0.028139
0.020057
0.011747
0.003888
-0.002706
-0.007261
-0.009120
-0.007601
-0.004293
0.000142
0.005129
0.010216
0.015090
0.019559
0.023525
0.026956
0.029861
0.032274
0.034239
0.035807
0.037030
0.037954
0.038627
0.039088
0.039372
0.039510
0.039525
0.039437
0.039261
0.039006
0.038681
0.038287
0.037826
0.037296
0.036691
0.036005
0.035227
0.034344
0.033040
0.364820
0.364221
0.362378
0.358784
0.352535
0.342233
0.325877
0.300786
0.263625
0.210664
0.138440
0.045286
-0.065156
-0.178738
-0.259581
-0.304212
-0.319938
-0.313127
-0.288912
-0.252274
-0.208232
-0.161782
-0.116982
-0.076440
-0.042262
-0.020857
-0.018292
-0.036667
-0.073351
-0.122288
-0.175224
-0.222848
-0.256143
-0.268008
-0.263497
-0.246020
-0.219519
-0.187784
-0.153981
-0.120503
-0.088995
-0.060466
-0.035423
-0.014000
0.003930
0.018661
0.030576
0.040091
0.047604
0.053454
0.057899
0.061102
0.063618
0.064882
0.064706
0.063143
0.060322
0.056344
0.051255
0.045063
0.037804
0.029636
0.020922
0.012267
0.004481
-0.001578
-0.005232
-0.005380
-0.003470
-0.000126
0.004060
0.008603
0.013141
0.017436
0.021351
0.024820
0.027826
0.030384
0.032521
0.034275
0.035686
0.036796
0.037642
0.038262
0.038687
0.038948
0.039068
0.039068
0.038965
0.038770
0.038492
0.038137
0.037707
0.037202
0.036620
0.035953
0.035195
0.034333
0.033353
0.031901
0.348772
0.347730
0.344660
0.339130
0.330394
0.317348
0.298504
0.272012
0.235790
0.187843
0.126890
0.053437
-0.028529
-0.110001
-0.175652
-0.219503
-0.242145
-0.246412
-0.235799
-0.213837
-0.184602
-0.151873
-0.118960
-0.088373
-0.063695
-0.048760
-0.047136
-0.060248
-0.086544
-0.121735
-0.159547
-0.192818
-0.214894
-0.222933
-0.219176
-0.205428
-0.184345
-0.158701
-0.130960
-0.103084
-0.076497
-0.052123
-0.030473
-0.011729
0.004159
0.017402
0.028300
0.037194
0.044421
0.050282
0.055027
0.058890
0.061864
0.063691
0.064239
0.063448
0.061306
0.057812
0.052965
0.046803
0.039458
0.031226
0.022626
0.014391
0.007379
0.002355
0.000257
0.000482
0.002266
0.005147
0.008669
0.012454
0.016227
0.019806
0.023086
0.026015
0.028580
0.030787
0.032655
0.034209
0.035477
0.036488
0.037271
0.037851
0.038254
0.038503
0.038617
0.038612
0.038502
0.038297
0.038005
0.037630
0.037173
0.036634
0.036010
0.035294
0.034478
0.033551
0.032494
0.030925
0.334594
0.333234
0.329296
0.322441
0.312089
0.297411
0.277352
0.250694
0.216214
0.172969
0.120756
0.060759
-0.003706
-0.066823
-0.120830
-0.160990
-0.185998
-0.196698
-0.195111
-0.183683
-0.165365
-0.143170
-0.119820
-0.097984
-0.080421
-0.069829
-0.068428
-0.077095
-0.094807
-0.118625
-0.144177
-0.166542
-0.181414
-0.187061
-0.183858
-0.172912
-0.156002
-0.135137
-0.112222
-0.088867
-0.066299
-0.045364
-0.026559
-0.010099
0.004019
0.015946
0.025924
0.034234
0.041160
0.046961
0.051851
0.056007
0.059268
0.061528
0.062647
0.062503
0.061006
0.058094
0.053751
0.048039
0.041161
0.033509
0.025684
0.018445
0.012587
0.008768
0.007119
0.007086
0.008325
0.010463
0.013146
0.016082
0.019055
0.021917
0.024580
0.026996
0.029147
0.031030
0.032653
0.034029
0.035175
0.036107
0.036843
0.037400
0.037795
0.038045
0.038164
0.038165
0.038059
0.037854
0.037556
0.037169
0.036694
0.036131
0.035476
0.034723
0.033865
0.032890
0.031781
0.030132
0.322872
0.321281
0.316742
0.309015
0.297668
0.282100
0.261581
0.235342
0.202711
0.163346
0.117543
0.066603
0.013145
-0.038896
-0.084905
-0.121427
-0.146833
-0.161062
-0.165165
-0.160871
-0.150303
-0.135818
-0.119754
-0.104379
-0.091873
-0.084209
-0.082867
-0.088399
-0.100102
-0.115983
-0.133078
-0.148076
-0.158158
-0.161746
-0.158571
-0.149283
-0.135103
-0.117520
-0.098035
-0.077982
-0.058427
-0.040131
-0.023565
-0.008944
0.003711
0.014522
0.023697
0.031482
0.038122
0.043839
0.048807
0.053103
0.056611
0.059244
0.060860
0.061301
0.060431
0.058157
0.054460
0.049430
0.043317
0.036552
0.029727
0.023521
0.018561
0.015247
0.013449
0.012996
0.013622
0.015033
0.016948
0.019130
0.021401
0.023636
0.025758
0.027721
0.029507
0.031105
0.032517
0.033744
0.034791
0.035665
0.036373
0.036923
0.037324
0.037588
0.037723
0.037740
0.037646
0.037449
0.037154
0.036764
0.036279
0.035701
0.035025
0.034246
0.033360
0.032356
0.031224
0.029545
0.314030
0.312240
0.307267
0.298973
0.287042
0.271032
0.250442
0.224791
0.193745
0.157287
0.115928
0.070914
0.024348
-0.020908
-0.061703
-0.095437
-0.120571
-0.136682
-0.144289
-0.144589
-0.139221
-0.130068
-0.119080
-0.108160
-0.099081
-0.093370
-0.092106
-0.095681
-0.103604
-0.114479
-0.126220
-0.136489
-0.143279
-0.145143
-0.141665
-0.133209
-0.120649
-0.105145
-0.087925
-0.070125
-0.052683
-0.036288
-0.021373
-0.008146
0.003370
0.013287
0.021799
0.029132
0.035514
0.041142
0.046171
0.050586
0.054322
0.057291
0.059339
0.060289
0.059979
0.058296
0.055220
0.050860
0.045481
0.039508
0.033486
0.027992
0.023519
0.020289
0.018344
0.017556
0.017713
0.018571
0.019895
0.021489
0.023203
0.024931
0.026609
0.028199
0.029681
0.031045
0.032283
0.033392
0.034367
0.035203
0.035899
0.036456
0.036875
0.037161
0.037320
0.037359
0.037284
0.037101
0.036814
0.036426
0.035939
0.035353
0.034664
0.033870
0.032966
0.031948
0.030816
0.029188
0.308435
0.306342
0.300997
0.292329
0.280071
0.263869
0.243355
0.218219
0.188312
0.153782
0.115222
0.073797
0.031289
-0.010022
-0.047694
-0.079616
-0.104388
-0.121460
-0.131080
-0.134136
-0.131956
-0.126125
-0.118319
-0.110182
-0.103226
-0.098717
-0.097532
-0.099995
-0.105746
-0.113732
-0.122356
-0.129800
-0.134458
-0.135104
-0.131294
-0.123226
-0.111575
-0.097300
-0.081460
-0.065062
-0.048955
-0.033775
-0.019931
-0.007620
0.003135
0.012438
0.020474
0.027461
0.033615
0.039130
0.044178
0.048693
0.052638
0.055899
0.058301
0.059648
0.059757
0.058506
0.055876
0.051985
0.047105
0.041651
0.036125
0.031056
0.026840
0.023677
0.021648
0.020650
0.020501
0.020991
0.021917
0.023108
0.024434
0.025806
0.027169
0.028491
0.029753
0.030946
0.032059
0.033083
0.034006
0.034818
0.035510
0.036077
0.036514
0.036823
0.037005
0.037064
0.037007
0.036838
0.036560
0.036177
0.035691
0.035102
0.034407
0.033603
0.032686
0.031655
0.030521
0.029070
0.306658
0.303655
0.297931
0.289040
0.276634
0.260378
0.239957
0.215136
0.185846
0.152298
0.115105
0.075380
0.034749
-0.004761
-0.040997
-0.072063
-0.096636
-0.114125
-0.124671
-0.129024
-0.128364
-0.124130
-0.117857
-0.111056
-0.105106
-0.101156
-0.100002
-0.101951
-0.106713
-0.113389
-0.120605
-0.126802
-0.130541
-0.130625
-0.126653
-0.118764
-0.107541
-0.093844
-0.078646
-0.062888
-0.047376
-0.032722
-0.019325
-0.007382
0.003079
0.012152
0.020014
0.026871
0.032928
0.038349
0.043210
0.047730
0.051817
0.055285
0.057922
0.059505
0.059838
0.058792
0.056351
0.052647
0.047967
0.042726
0.037403
0.032438
0.028219
0.025095
0.023052
0.021985
0.021725
0.022074
0.022846
0.023878
0.025050
0.026278
0.027510
0.028716
0.029880
0.030990
0.032037
0.033009
0.033896
0.034685
0.035363
0.035924
0.036362
0.036675
0.036863
0.036929
0.036879
0.036714
0.036441
0.036060
0.035574
0.034983
0.034285
0.033475
0.032550
0.031499
0.030305
0.028955
