# vtk DataFile Version 3.0
Scalar Field
ASCII
DATASET RECTILINEAR_GRID
DIMENSIONS 100 26 1
X_COORDINATES 100 double
0.050000 0.150000 0.250000 0.350000 0.450000 0.550000 0.650000 0.750000 0.850000 0.950000 1.050000 1.150000 1.250000 1.350000 1.450000 1.550000 1.650000 1.750000 1.850000 1.950000 2.050000 2.150000 2.250000 2.350000 2.450000 2.550000 2.650000 2.750000 2.850000 2.950000 3.050000 3.150000 3.250000 3.350000 3.450000 3.550000 3.650000 3.750000 3.850000 3.950000 4.050000 4.150000 4.250000 4.350000 4.450000 4.550000 4.650000 4.750000 4.850000 4.950000 5.050000 5.150000 5.250000 5.350000 5.450000 5.550000 5.650000 5.750000 5.850000 5.950000 6.050000 6.150000 6.250000 6.350000 6.450000 6.550000 6.650000 6.750000 6.850000 6.950000 7.050000 7.150000 7.250000 7.350000 7.450000 7.550000 7.650000 7.750000 7.850000 7.950000 8.050000 8.150000 8.250000 8.350000 8.450000 8.550000 8.650000 8.750000 8.850000 8.950000 9.050000 9.150000 9.250000 9.350000 9.450000 9.550000 9.650000 9.750000 9.850000 9.950000 
Y_COORDINATES 26 double
0.050000 0.150000 0.250000 0.350000 0.450000 0.550000 0.650000 0.750000 0.850000 0.950000 1.050000 1.150000 1.250000 1.350000 1.450000 1.550000 1.650000 1.750000 1.850000 1.950000 2.050000 2.150000 2.250000 2.350000 2.450000 2.550000 
Z_COORDINATES 1 double
0.0
POINT_DATA 2600
SCALARS Skalarfeld double 1
LOOKUP_TABLE default
0.282183
0.266874
0.251551
0.233181
0.210621
0.183367
0.151325
0.114811
0.074620
0.032066
-0.011100
-0.052958
-0.091730
-0.126018
-0.154951
-0.177287
-0.192886
-0.201900
-0.204761
-0.202138
-0.194864
-0.183858
-0.170039
-0.154249
-0.137207
-0.119480
-0.101497
-0.083589
-0.066042
-0.049159
-0.033303
-0.018883
-0.005926
0.004924
0.013006
0.018443
0.021656
0.022908
0.022424
0.020281
0.016411
0.010688
0.003066
-0.006271
-0.016755
-0.027266
-0.035987
-0.040720
-0.040263
-0.034426
-0.025743
-0.016094
-0.006398
0.002754
0.010996
0.018144
0.024149
0.029056
0.032982
0.036098
0.038487
0.040462
0.041749
0.042155
0.041514
0.039730
0.036906
0.033410
0.029738
0.026228
0.022851
0.019264
0.015145
0.010503
0.005756
0.001531
-0.001639
-0.003517
-0.004163
-0.003781
-0.002561
-0.000738
0.001475
0.003845
0.006144
0.008221
0.010023
0.011587
0.012962
0.014183
0.015270
0.016235
0.017120
0.018010
0.019025
0.020299
0.021954
0.024082
0.026733
0.030127
0.273428
0.266931
0.254608
0.237423
0.215204
0.187702
0.154854
0.116977
0.074946
0.030279
-0.014951
-0.058539
-0.098554
-0.133518
-0.162286
-0.184735
-0.200293
-0.209057
-0.211469
-0.208213
-0.200149
-0.188236
-0.173436
-0.156640
-0.138609
-0.119950
-0.101125
-0.082486
-0.064334
-0.046982
-0.030825
-0.016025
-0.003321
0.006879
0.014580
0.019533
0.022046
0.022637
0.021609
0.019069
0.014939
0.009060
0.001340
-0.008094
-0.018728
-0.029414
-0.038118
-0.042243
-0.040080
-0.033699
-0.025768
-0.016368
-0.006781
0.002314
0.010500
0.017597
0.023565
0.028459
0.032410
0.035626
0.038416
0.040584
0.041921
0.042424
0.041901
0.040181
0.037363
0.033867
0.030259
0.026881
0.023625
0.020022
0.015662
0.010584
0.005347
0.000748
-0.002575
-0.004407
-0.004923
-0.004432
-0.003049
-0.001084
0.001290
0.003819
0.006237
0.008385
0.010212
0.011791
0.013154
0.014338
0.015370
0.016261
0.017058
0.017863
0.018814
0.020060
0.021734
0.023938
0.026692
0.030039
0.276706
0.272570
0.262142
0.245985
0.224008
0.195900
0.161451
0.120870
0.075113
0.026085
-0.023368
-0.070393
-0.112821
-0.149269
-0.178952
-0.201583
-0.217051
-0.225248
-0.226639
-0.221919
-0.211985
-0.197863
-0.180612
-0.161240
-0.140632
-0.119525
-0.098504
-0.078032
-0.058493
-0.040251
-0.023681
-0.009382
0.002114
0.010547
0.015962
0.018723
0.018880
0.017395
0.014890
0.011543
0.007267
0.001847
-0.004886
-0.012865
-0.021588
-0.029929
-0.036152
-0.038535
-0.036475
-0.030899
-0.022739
-0.013986
-0.005360
0.003041
0.010633
0.017237
0.022792
0.027340
0.031002
0.033956
0.036395
0.038379
0.039988
0.040914
0.040932
0.039897
0.037852
0.035058
0.031884
0.028489
0.024819
0.020593
0.015620
0.010092
0.004629
0.000004
-0.003237
-0.004985
-0.005447
-0.004892
-0.003646
-0.001779
0.000633
0.003273
0.005835
0.008209
0.010284
0.011974
0.013291
0.014301
0.015111
0.015778
0.016411
0.017155
0.018179
0.019651
0.021715
0.024476
0.027967
0.033754
0.287676
0.284312
0.274927
0.259491
0.237563
0.208455
0.171526
0.126637
0.074752
0.018363
-0.037958
-0.090145
-0.135828
-0.174028
-0.204485
-0.227189
-0.242222
-0.249410
-0.249182
-0.242214
-0.229448
-0.212018
-0.191132
-0.167966
-0.143595
-0.118939
-0.094759
-0.071663
-0.050139
-0.030605
-0.013522
0.000319
0.010368
0.016349
0.018439
0.017307
0.013994
0.009174
0.004340
-0.000223
-0.004618
-0.009138
-0.014059
-0.019430
-0.024915
-0.029712
-0.032710
-0.032948
-0.030134
-0.024745
-0.017593
-0.009691
-0.001570
0.005878
0.012517
0.018281
0.023059
0.026874
0.029831
0.032110
0.033921
0.035438
0.036771
0.037834
0.038454
0.038397
0.037423
0.035453
0.032623
0.029038
0.024941
0.020283
0.015107
0.009680
0.004517
0.000175
-0.002984
-0.004889
-0.005639
-0.005346
-0.004120
-0.002074
0.000361
0.002942
0.005492
0.007976
0.010103
0.011756
0.012940
0.013718
0.014208
0.014582
0.015039
0.015782
0.017014
0.018917
0.021657
0.025385
0.030280
0.038851
0.304882
0.301920
0.293331
0.278622
0.256827
0.226562
0.186315
0.135089
0.073555
0.004869
-0.062104
-0.121200
-0.170393
-0.209941
-0.240643
-0.262957
-0.276978
-0.282596
-0.280016
-0.269836
-0.253087
-0.231087
-0.205274
-0.177067
-0.147772
-0.118535
-0.090308
-0.063851
-0.039736
-0.018380
-0.000273
0.013409
0.021845
0.024631
0.022132
0.015564
0.006817
-0.002055
-0.009774
-0.015621
-0.019859
-0.022992
-0.025517
-0.027710
-0.029505
-0.030502
-0.030123
-0.027899
-0.023732
-0.017936
-0.011073
-0.003792
0.003374
0.009953
0.015756
0.020590
0.024437
0.027296
0.029273
0.030606
0.031557
0.032393
0.033303
0.034305
0.035216
0.035707
0.035419
0.034103
0.031657
0.028245
0.023899
0.018838
0.013521
0.008258
0.003478
-0.000440
-0.003266
-0.004943
-0.005533
-0.005139
-0.003898
-0.001979
0.000395
0.003042
0.005788
0.008210
0.010221
0.011696
0.012607
0.013009
0.013052
0.013013
0.013176
0.013811
0.015154
0.017409
0.020756
0.025372
0.031469
0.041523
0.327570
0.325019
0.317438
0.303948
0.282935
0.251958
0.207909
0.147840
0.071121
-0.019111
-0.102045
-0.168769
-0.219960
-0.259077
-0.288887
-0.310286
-0.322800
-0.326461
-0.320809
-0.306297
-0.284149
-0.256022
-0.223710
-0.188960
-0.153375
-0.118355
-0.085076
-0.054464
-0.027174
-0.003569
0.016134
0.030100
0.036907
0.035874
0.027581
0.013907
-0.002216
-0.017303
-0.028335
-0.035210
-0.038702
-0.039750
-0.039278
-0.037906
-0.035880
-0.033139
-0.029465
-0.024687
-0.018826
-0.012132
-0.005009
0.002088
0.008760
0.014686
0.019664
0.023533
0.026256
0.027898
0.028622
0.028767
0.028629
0.028569
0.028831
0.029549
0.030563
0.031487
0.031840
0.031201
0.029301
0.026087
0.021657
0.016434
0.010903
0.005531
0.000934
-0.002621
-0.004991
-0.006176
-0.006275
-0.005438
-0.003841
-0.001670
0.000882
0.003623
0.006343
0.008775
0.010710
0.011971
0.012485
0.012337
0.011764
0.011107
0.010731
0.010975
0.012133
0.014443
0.018094
0.023257
0.030051
0.041129
0.354972
0.353015
0.347034
0.335838
0.317134
0.287072
0.239868
0.168295
0.067029
-0.063932
-0.168417
-0.238739
-0.285994
-0.320413
-0.347655
-0.368483
-0.380047
-0.382174
-0.373042
-0.353044
-0.323903
-0.287874
-0.247281
-0.204301
-0.160889
-0.118755
-0.079344
-0.043809
-0.012968
0.012764
0.033859
0.048822
0.054490
0.049885
0.035946
0.015140
-0.008927
-0.031884
-0.049311
-0.057569
-0.060051
-0.058582
-0.054776
-0.049716
-0.043968
-0.037725
-0.030993
-0.023758
-0.016106
-0.008250
-0.000500
0.006806
0.013367
0.018946
0.023365
0.026468
0.028131
0.028313
0.027207
0.025228
0.023181
0.021988
0.021399
0.021773
0.022962
0.024471
0.025685
0.026032
0.025083
0.022617
0.018647
0.013468
0.007569
0.001968
-0.002698
-0.006137
-0.008197
-0.008909
-0.008428
-0.006976
-0.004795
-0.002121
0.000823
0.003828
0.006676
0.009118
0.010913
0.011863
0.011889
0.011092
0.009747
0.008255
0.007070
0.006630
0.007315
0.009417
0.013137
0.018600
0.025957
0.037680
0.385978
0.384896
0.381392
0.374151
0.360424
0.334945
0.288125
0.204069
0.061001
-0.153174
-0.276298
-0.331857
-0.361454
-0.383934
-0.407016
-0.430508
-0.445190
-0.448129
-0.435951
-0.409717
-0.372299
-0.326921
-0.276601
-0.224020
-0.171533
-0.121213
-0.074858
-0.033953
0.000385
0.027412
0.046741
0.062914
0.068205
0.061265
0.043839
0.019072
-0.009400
-0.037574
-0.061307
-0.076139
-0.078780
-0.075707
-0.069378
-0.061405
-0.052679
-0.043609
-0.034361
-0.025027
-0.015741
-0.006707
0.001811
0.009536
0.016219
0.021646
0.025612
0.027873
0.028190
0.026492
0.023093
0.018750
0.014489
0.011122
0.009718
0.010124
0.011903
0.014377
0.016797
0.018480
0.018882
0.017656
0.014696
0.010183
0.004592
-0.001309
-0.006535
-0.010130
-0.012178
-0.012677
-0.011803
-0.009834
-0.007087
-0.003875
-0.000479
0.002845
0.005851
0.008283
0.009892
0.010475
0.009950
0.008421
0.006189
0.003721
0.001575
0.000308
0.000402
0.002206
0.005926
0.011635
0.019494
0.031661
0.418960
0.419047
0.418970
0.417655
0.412591
0.398122
0.361380
0.272894
0.058793
-0.343995
-0.436951
-0.430124
-0.424405
-0.428156
-0.445443
-0.476356
-0.506477
-0.515258
-0.502008
-0.470306
-0.425058
-0.370689
-0.310937
-0.248974
-0.187578
-0.129269
-0.076357
-0.030840
0.005807
0.032656
0.049443
0.056789
0.060251
0.052553
0.036738
0.015040
-0.010288
-0.036516
-0.060357
-0.078467
-0.087544
-0.085327
-0.078708
-0.069782
-0.059738
-0.049194
-0.038475
-0.027798
-0.017374
-0.007453
0.001688
0.009768
0.016525
0.021693
0.024952
0.025907
0.024234
0.019966
0.013750
0.006817
0.000598
-0.003869
-0.005504
-0.004489
-0.001622
0.002208
0.006138
0.009404
0.011399
0.011701
0.010113
0.006707
0.001861
-0.003753
-0.009273
-0.013621
-0.015943
-0.016580
-0.015665
-0.013488
-0.010424
-0.006858
-0.003148
0.000389
0.003465
0.005805
0.007151
0.007298
0.006163
0.003853
0.000700
-0.002760
-0.005864
-0.007939
-0.008413
-0.006886
-0.003153
0.002812
0.011135
0.023708
0.451745
0.453186
0.457178
0.463334
0.470464
0.475063
0.466607
0.411176
0.159618
-0.695176
-0.619860
-0.485102
-0.450122
-0.439567
-0.450649
-0.486554
-0.535127
-0.561745
-0.551937
-0.519007
-0.470319
-0.411218
-0.345981
-0.278223
-0.211208
-0.148081
-0.092044
-0.046183
-0.012461
0.009367
0.021081
0.024748
0.022337
0.017333
0.008603
-0.003757
-0.019249
-0.036777
-0.054429
-0.069683
-0.080083
-0.083965
-0.079472
-0.071920
-0.062640
-0.052389
-0.041636
-0.030734
-0.020018
-0.009838
-0.000550
0.007494
0.013946
0.018416
0.020429
0.019470
0.015249
0.008087
-0.000870
-0.009878
-0.017225
-0.021829
-0.022717
-0.020456
-0.016050
-0.010545
-0.004904
0.000064
0.003727
0.005638
0.005551
0.003459
-0.000364
-0.005350
-0.010698
-0.015512
-0.018634
-0.019702
-0.019123
-0.017129
-0.014110
-0.010511
-0.006755
-0.003224
-0.000253
0.001855
0.002829
0.002459
0.000664
-0.002441
-0.006487
-0.010875
-0.014855
-0.017661
-0.018647
-0.017372
-0.013626
-0.007403
0.001346
0.014354
0.481832
0.484569
0.492515
0.506177
0.526368
0.554007
0.589185
0.626928
0.701096
0.002960
-0.542087
-0.464314
-0.453176
-0.446690
-0.454321
-0.483855
-0.527107
-0.564630
-0.566792
-0.537892
-0.492498
-0.435795
-0.372270
-0.305901
-0.240523
-0.180076
-0.128588
-0.089472
-0.063768
-0.049284
-0.042377
-0.039928
-0.038506
-0.035623
-0.033415
-0.033129
-0.035530
-0.040846
-0.048528
-0.057177
-0.064882
-0.069900
-0.071008
-0.066508
-0.059726
-0.051403
-0.042073
-0.032194
-0.022228
-0.012650
-0.003942
0.003426
0.008971
0.012150
0.012341
0.008990
0.001982
-0.007934
-0.019091
-0.029386
-0.037015
-0.040927
-0.040330
-0.036295
-0.029974
-0.022549
-0.015066
-0.008366
-0.003078
0.000368
0.001724
0.000945
-0.001774
-0.005966
-0.010911
-0.015735
-0.019556
-0.021399
-0.021464
-0.019993
-0.017376
-0.014082
-0.010584
-0.007316
-0.004658
-0.002944
-0.002463
-0.003430
-0.005926
-0.009820
-0.014713
-0.019956
-0.024735
-0.028220
-0.029703
-0.028706
-0.025016
-0.018544
-0.009470
0.003950
0.506828
0.510515
0.521352
0.540447
0.569934
0.613538
0.677757
0.773716
0.909039
0.940753
0.000000
-0.460351
-0.456389
-0.453841
-0.460645
-0.480695
-0.508299
-0.532779
-0.539902
-0.518490
-0.480307
-0.431384
-0.376346
-0.319239
-0.264204
-0.215570
-0.177380
-0.152027
-0.137866
-0.130198
-0.124705
-0.117432
-0.105840
-0.091764
-0.077243
-0.064005
-0.053408
-0.046400
-0.043365
-0.043913
-0.046869
-0.050589
-0.053463
-0.053948
-0.050579
-0.045261
-0.038474
-0.030695
-0.022466
-0.014379
-0.007042
-0.001060
0.002933
0.004241
0.002131
-0.003902
-0.013686
-0.026011
-0.038791
-0.049739
-0.057133
-0.059491
-0.056998
-0.050821
-0.042319
-0.032814
-0.023434
-0.015042
-0.008243
-0.003428
-0.000805
-0.000418
-0.002115
-0.005508
-0.009966
-0.014692
-0.018875
-0.021558
-0.022334
-0.021586
-0.019623
-0.016901
-0.013915
-0.011133
-0.008973
-0.007798
-0.007915
-0.009547
-0.012773
-0.017448
-0.023152
-0.029204
-0.034751
-0.038915
-0.040940
-0.040308
-0.036794
-0.030222
-0.020994
-0.007333
0.524976
0.529078
0.541124
0.562264
0.594569
0.641174
0.705911
0.790151
0.886052
0.972467
0.889745
0.000000
-0.458420
-0.460450
-0.459707
-0.467717
-0.478971
-0.486280
-0.481796
-0.462103
-0.428808
-0.389295
-0.346952
-0.305667
-0.269590
-0.242642
-0.226913
-0.221018
-0.219345
-0.216004
-0.207217
-0.188892
-0.165540
-0.139468
-0.113029
-0.088225
-0.066616
-0.049345
-0.037125
-0.030136
-0.027852
-0.029020
-0.031922
-0.034804
-0.035796
-0.033846
-0.030209
-0.025226
-0.019453
-0.013557
-0.008246
-0.004253
-0.002358
-0.003405
-0.008185
-0.017075
-0.029559
-0.044000
-0.058006
-0.069186
-0.075861
-0.076314
-0.071585
-0.063052
-0.052265
-0.040671
-0.029461
-0.019506
-0.011380
-0.005413
-0.001757
-0.000424
-0.001272
-0.003966
-0.007950
-0.012489
-0.016777
-0.020075
-0.021657
-0.021719
-0.020531
-0.018529
-0.016209
-0.014058
-0.012517
-0.011976
-0.012759
-0.015097
-0.019065
-0.024511
-0.031004
-0.037848
-0.044170
-0.049060
-0.051723
-0.051603
-0.048458
-0.042047
-0.032978
-0.019465
0.535506
0.539474
0.551050
0.571031
0.600666
0.641387
0.694286
0.758900
0.823809
0.845206
0.807023
0.689886
0.000000
-0.458124
-0.455798
-0.449917
-0.446632
-0.434705
-0.410603
-0.380176
-0.348370
-0.316385
-0.287806
-0.266464
-0.255937
-0.257844
-0.270045
-0.285388
-0.294973
-0.293237
-0.274160
-0.244675
-0.209905
-0.172822
-0.136107
-0.101929
-0.071878
-0.047029
-0.028040
-0.015191
-0.008301
-0.006558
-0.008492
-0.012224
-0.015926
-0.017629
-0.017284
-0.015344
-0.012356
-0.009025
-0.006133
-0.004525
-0.005122
-0.008891
-0.016622
-0.028498
-0.043632
-0.060020
-0.075035
-0.086205
-0.091784
-0.090037
-0.082953
-0.072098
-0.059172
-0.045707
-0.032922
-0.021674
-0.012488
-0.005633
-0.001198
0.000849
0.000657
-0.001473
-0.005047
-0.009390
-0.013745
-0.017423
-0.019665
-0.020471
-0.020046
-0.018787
-0.017175
-0.015701
-0.014823
-0.014948
-0.016414
-0.019459
-0.024158
-0.030354
-0.037614
-0.045241
-0.052360
-0.058046
-0.061480
-0.062074
-0.059559
-0.053694
-0.045271
-0.032544
0.538661
0.542070
0.551949
0.568712
0.592907
0.624838
0.663454
0.703763
0.732870
0.723949
0.659931
0.572749
0.402791
0.000000
-0.443308
-0.430818
-0.426275
-0.393774
-0.344632
-0.294805
-0.256129
-0.229605
-0.215064
-0.214590
-0.230853
-0.263186
-0.302685
-0.336575
-0.354451
-0.347818
-0.318493
-0.279739
-0.235856
-0.190392
-0.146238
-0.105568
-0.069868
-0.040040
-0.016555
0.000413
0.010959
0.015565
0.015288
0.011767
0.006904
0.002329
-0.000221
-0.001122
-0.000848
-0.000113
0.000245
-0.000718
-0.004052
-0.010795
-0.021668
-0.036586
-0.054295
-0.072476
-0.088333
-0.099398
-0.103119
-0.099237
-0.090036
-0.077240
-0.062640
-0.047798
-0.033916
-0.021803
-0.011926
-0.004489
0.000473
0.003029
0.003335
0.001664
-0.001545
-0.005679
-0.010020
-0.013890
-0.016660
-0.018064
-0.018295
-0.017703
-0.016747
-0.015914
-0.015670
-0.016432
-0.018550
-0.022265
-0.027651
-0.034554
-0.042544
-0.050937
-0.058869
-0.065423
-0.069778
-0.071350
-0.069713
-0.064958
-0.057843
-0.046795
0.535476
0.538124
0.545710
0.558250
0.575559
0.596779
0.619417
0.637720
0.640561
0.609954
0.527997
0.384586
0.232834
-0.198986
-0.498382
-0.451669
-0.426074
-0.366489
-0.292609
-0.225464
-0.175650
-0.150433
-0.145493
-0.164676
-0.206197
-0.263012
-0.321980
-0.367391
-0.386953
-0.370538
-0.336345
-0.292061
-0.243006
-0.193135
-0.145363
-0.101711
-0.063444
-0.031230
-0.005321
0.014270
0.027651
0.035081
0.037169
0.035069
0.030414
0.024865
0.020017
0.016835
0.014795
0.013168
0.011083
0.007517
0.001341
-0.008484
-0.022513
-0.040347
-0.060386
-0.080051
-0.096399
-0.106847
-0.108274
-0.102813
-0.092142
-0.078153
-0.062664
-0.047203
-0.032899
-0.020487
-0.010364
-0.002678
0.002576
0.005486
0.006200
0.004956
0.002132
-0.001722
-0.005939
-0.009853
-0.012940
-0.014778
-0.015508
-0.015449
-0.015039
-0.014755
-0.015065
-0.016394
-0.019095
-0.023410
-0.029415
-0.036955
-0.045617
-0.054739
-0.063483
-0.070962
-0.076382
-0.079196
-0.078742
-0.075824
-0.070815
-0.062574
0.527349
0.529119
0.534110
0.542046
0.552252
0.563249
0.572061
0.573235
0.557740
0.512112
0.418647
0.252731
-0.037483
-0.630806
-0.545095
-0.442037
-0.386865
-0.324977
-0.252173
-0.184798
-0.133167
-0.102569
-0.104318
-0.136051
-0.191880
-0.260563
-0.326780
-0.374308
-0.383161
-0.363955
-0.328186
-0.282897
-0.233444
-0.183726
-0.136459
-0.093411
-0.055603
-0.023499
0.002824
0.023513
0.038775
0.048787
0.053799
0.054394
0.051657
0.046961
0.041465
0.037056
0.033388
0.029821
0.025529
0.019479
0.010538
-0.002225
-0.019119
-0.039419
-0.061243
-0.081840
-0.098228
-0.107226
-0.106965
-0.100498
-0.089286
-0.075144
-0.059793
-0.044640
-0.030700
-0.018611
-0.008701
-0.001080
0.004273
0.007443
0.008550
0.007780
0.005446
0.002016
-0.001905
-0.005692
-0.008841
-0.010920
-0.011973
-0.012292
-0.012294
-0.012448
-0.013215
-0.015021
-0.018218
-0.023047
-0.029580
-0.037671
-0.046927
-0.056719
-0.066257
-0.074700
-0.081317
-0.085483
-0.086936
-0.086489
-0.084415
-0.080309
0.515901
0.516807
0.519285
0.522900
0.526748
0.529164
0.527268
0.516410
0.489617
0.437136
0.345982
0.198892
-0.026233
-0.313045
-0.372969
-0.355085
-0.320784
-0.271631
-0.217625
-0.164780
-0.118511
-0.092473
-0.098582
-0.134280
-0.191219
-0.256907
-0.316435
-0.349876
-0.351506
-0.332355
-0.298935
-0.257203
-0.211869
-0.166383
-0.123113
-0.083566
-0.048588
-0.018541
0.006553
0.026890
0.042767
0.054449
0.062111
0.065958
0.066496
0.064547
0.060778
0.056839
0.052525
0.047638
0.041575
0.033400
0.022094
0.006928
-0.012118
-0.034033
-0.056748
-0.077425
-0.093016
-0.099605
-0.099133
-0.092848
-0.082323
-0.069244
-0.055146
-0.041253
-0.028434
-0.017227
-0.007912
-0.000587
0.004752
0.008156
0.009699
0.009509
0.007821
0.005021
0.001630
-0.001784
-0.004751
-0.006838
-0.008027
-0.008572
-0.008864
-0.009351
-0.010487
-0.012687
-0.016296
-0.021545
-0.028507
-0.037048
-0.046805
-0.057198
-0.067494
-0.076921
-0.084817
-0.090490
-0.094506
-0.097168
-0.098812
-0.100298
0.502728
0.502866
0.503137
0.503064
0.501722
0.497538
0.488035
0.469560
0.437089
0.384229
0.303562
0.188001
0.036376
-0.128655
-0.214556
-0.241679
-0.237206
-0.213728
-0.181117
-0.146787
-0.118661
-0.106180
-0.115656
-0.146399
-0.192308
-0.242740
-0.283791
-0.302666
-0.302293
-0.285866
-0.257928
-0.222957
-0.184692
-0.145973
-0.108787
-0.074425
-0.043630
-0.016747
0.006162
0.025229
0.040700
0.052863
0.061975
0.068265
0.071962
0.073298
0.074191
0.072283
0.068541
0.063337
0.056356
0.046858
0.034054
0.017497
-0.002543
-0.024855
-0.047313
-0.067184
-0.080577
-0.086415
-0.086452
-0.081526
-0.072944
-0.062103
-0.050262
-0.038417
-0.027283
-0.017324
-0.008804
-0.001857
0.003467
0.007152
0.009214
0.009715
0.008825
0.006849
0.004224
0.001440
-0.001070
-0.002916
-0.004062
-0.004704
-0.005188
-0.005935
-0.007377
-0.009909
-0.013857
-0.019438
-0.026725
-0.035605
-0.045761
-0.056676
-0.067688
-0.078116
-0.087231
-0.095019
-0.101822
-0.107978
-0.113899
-0.122347
0.489256
0.488751
0.487202
0.484178
0.478860
0.469923
0.455407
0.432630
0.398212
0.348339
0.279445
0.189776
0.082966
-0.026324
-0.103652
-0.145968
-0.161787
-0.159603
-0.147140
-0.131259
-0.118655
-0.115621
-0.126037
-0.149617
-0.181983
-0.215344
-0.239764
-0.251768
-0.250595
-0.237732
-0.215984
-0.188436
-0.157861
-0.126477
-0.095898
-0.067204
-0.041037
-0.017719
0.002656
0.020148
0.034914
0.047173
0.057155
0.065062
0.071158
0.076492
0.079589
0.080107
0.078232
0.074062
0.067405
0.057802
0.044784
0.028229
0.008656
-0.012623
-0.033562
-0.051130
-0.062805
-0.069415
-0.071210
-0.068861
-0.063325
-0.055635
-0.046731
-0.037380
-0.028167
-0.019520
-0.011747
-0.005065
0.000374
0.004455
0.007135
0.008413
0.008408
0.007364
0.005647
0.003672
0.001889
0.000460
-0.000508
-0.001152
-0.001769
-0.002741
-0.004462
-0.007292
-0.011521
-0.017345
-0.024843
-0.033938
-0.044378
-0.055728
-0.067408
-0.078767
-0.089431
-0.099434
-0.109040
-0.118711
-0.129025
-0.145293
0.476679
0.475646
0.472636
0.467329
0.459088
0.446887
0.429275
0.404390
0.370090
0.324271
0.265503
0.194119
0.113930
0.033895
-0.031244
-0.076129
-0.102337
-0.114069
-0.116340
-0.114234
-0.112631
-0.115716
-0.125950
-0.143208
-0.164685
-0.185498
-0.200859
-0.208146
-0.206419
-0.196367
-0.179679
-0.158417
-0.134571
-0.109812
-0.085394
-0.062154
-0.040576
-0.020877
-0.003101
0.012795
0.026890
0.039275
0.050057
0.059361
0.067773
0.074595
0.079445
0.082014
0.082160
0.079711
0.074393
0.065888
0.054006
0.038900
0.021250
0.002329
-0.015826
-0.031031
-0.043061
-0.051477
-0.056173
-0.057368
-0.055585
-0.051488
-0.045720
-0.038850
-0.031383
-0.023780
-0.016443
-0.009739
-0.003941
0.000673
0.004068
0.006153
0.007045
0.006981
0.006241
0.005169
0.004018
0.003032
0.002287
0.001669
0.000920
-0.000294
-0.002313
-0.005435
-0.009898
-0.015866
-0.023439
-0.032597
-0.043185
-0.054892
-0.067291
-0.079775
-0.092006
-0.103999
-0.116055
-0.128737
-0.142854
-0.166610
0.465980
0.464486
0.460264
0.453177
0.442805
0.428415
0.408986
0.383280
0.350005
0.308098
0.257189
0.198248
0.134343
0.071024
0.015615
-0.027703
-0.058361
-0.078087
-0.089790
-0.096823
-0.102493
-0.109557
-0.119632
-0.132744
-0.147302
-0.160799
-0.170388
-0.174319
-0.171946
-0.163641
-0.150497
-0.133943
-0.115432
-0.096215
-0.077221
-0.059025
-0.041877
-0.025782
-0.010614
0.003759
0.017370
0.030115
0.041859
0.052738
0.062411
0.070621
0.077063
0.081422
0.083427
0.082808
0.079288
0.072660
0.062915
0.050358
0.035674
0.020007
0.004323
-0.010576
-0.024049
-0.035384
-0.043862
-0.049086
-0.051158
-0.050484
-0.047496
-0.042615
-0.036342
-0.029244
-0.021864
-0.014806
-0.008314
-0.002956
0.001193
0.004127
0.005872
0.006590
0.006569
0.006115
0.005480
0.004844
0.004241
0.003561
0.002580
0.001024
-0.001369
-0.004810
-0.009458
-0.015433
-0.022899
-0.031927
-0.042644
-0.054893
-0.068047
-0.081605
-0.095192
-0.108728
-0.122491
-0.137099
-0.153550
-0.182477
0.458016
0.456014
0.450641
0.442059
0.430075
0.414198
0.393721
0.367844
0.335818
0.297176
0.252034
0.201458
0.147774
0.094572
0.046040
0.005141
-0.027047
-0.051031
-0.068359
-0.081103
-0.091408
-0.101085
-0.111233
-0.121979
-0.132543
-0.141588
-0.147360
-0.148866
-0.145763
-0.138374
-0.127531
-0.114336
-0.099915
-0.085227
-0.070938
-0.057361
-0.044475
-0.031989
-0.019472
-0.006545
0.006883
0.020394
0.033483
0.045738
0.056851
0.066579
0.074637
0.080712
0.084498
0.085704
0.084114
0.079662
0.072484
0.062924
0.051452
0.037979
0.023401
0.007894
-0.008022
-0.023160
-0.035889
-0.044986
-0.050258
-0.052172
-0.051121
-0.047360
-0.041507
-0.034336
-0.026274
-0.018682
-0.011813
-0.005735
-0.000871
0.002716
0.005091
0.006431
0.006989
0.007014
0.006721
0.006244
0.005575
0.004613
0.003183
0.001089
-0.001820
-0.005633
-0.010401
-0.016154
-0.023291
-0.032262
-0.043125
-0.055710
-0.069633
-0.084230
-0.098879
-0.113318
-0.127776
-0.142885
-0.159605
-0.188865
0.453743
0.450861
0.444085
0.434056
0.420750
0.403805
0.382696
0.356893
0.325978
0.289803
0.248691
0.203631
0.156402
0.109475
0.065565
0.026821
-0.005647
-0.031773
-0.052304
-0.068464
-0.081612
-0.092931
-0.103208
-0.112590
-0.120838
-0.126968
-0.130159
-0.129886
-0.126069
-0.119096
-0.109719
-0.098883
-0.087530
-0.076427
-0.066034
-0.056453
-0.047433
-0.038414
-0.028602
-0.017138
-0.003511
0.011104
0.025614
0.039530
0.052345
0.063718
0.073373
0.081024
0.086375
0.089161
0.089244
0.086742
0.081933
0.074938
0.065183
0.053471
0.039456
0.022818
0.003923
-0.015488
-0.032501
-0.044664
-0.051611
-0.054568
-0.054450
-0.050882
-0.044335
-0.037000
-0.029232
-0.021058
-0.013502
-0.006943
-0.001638
0.002357
0.005130
0.006874
0.007829
0.008160
0.008021
0.007525
0.006561
0.005061
0.002910
0.000025
-0.003574
-0.007796
-0.012620
-0.018299
-0.025097
-0.033536
-0.044131
-0.056949
-0.071526
-0.086958
-0.102295
-0.117014
-0.131243
-0.145627
-0.161206
-0.184131
0.454821
0.449499
0.440585
0.428999
0.414543
0.396801
0.375263
0.349555
0.319441
0.284937
0.246436
0.204827
0.161529
0.118388
0.077386
0.040199
0.007873
-0.019264
-0.041511
-0.059586
-0.074353
-0.086555
-0.096913
-0.105591
-0.112306
-0.116659
-0.118238
-0.116830
-0.112538
-0.105808
-0.097362
-0.088056
-0.078717
-0.069983
-0.062184
-0.055293
-0.048950
-0.042533
-0.035142
-0.025398
-0.011740
0.003500
0.019701
0.035466
0.049981
0.062835
0.073780
0.082584
0.088985
0.092730
0.093737
0.092426
0.088904
0.082692
0.074507
0.063919
0.050257
0.032834
0.011706
-0.011196
-0.031823
-0.046108
-0.053003
-0.054554
-0.053837
-0.050950
-0.045588
-0.037831
-0.029456
-0.021111
-0.013411
-0.006750
-0.001346
0.002752
0.005642
0.007534
0.008738
0.009229
0.009099
0.008326
0.006971
0.004916
0.002049
-0.001642
-0.006023
-0.010849
-0.015939
-0.021407
-0.027708
-0.035558
-0.045616
-0.058081
-0.072532
-0.088046
-0.103595
-0.118509
-0.132731
-0.146709
-0.160830
-0.177013
0.465733
0.451579
0.439571
0.426623
0.411378
0.393063
0.371259
0.345609
0.315944
0.282338
0.245196
0.205325
0.163954
0.122642
0.083055
0.046661
0.014470
-0.013082
-0.036094
-0.055063
-0.070703
-0.083720
-0.094317
-0.102758
-0.108972
-0.112711
-0.113728
-0.111928
-0.107483
-0.100853
-0.092732
-0.083925
-0.075199
-0.067135
-0.060018
-0.053787
-0.048052
-0.042170
-0.035308
-0.026504
-0.015343
0.000364
0.017710
0.034626
0.050075
0.063618
0.075048
0.084182
0.090794
0.094639
0.095569
0.093568
0.089327
0.083476
0.075687
0.065491
0.052255
0.035397
0.014977
-0.007392
-0.028186
-0.043466
-0.051639
-0.054358
-0.053155
-0.049724
-0.044249
-0.036904
-0.028736
-0.020567
-0.013008
-0.006458
-0.001134
0.002912
0.005769
0.007616
0.008584
0.009015
0.008859
0.008067
0.006611
0.004413
0.001402
-0.002418
-0.006916
-0.011880
-0.017162
-0.022860
-0.029391
-0.037374
-0.047351
-0.059483
-0.073420
-0.088415
-0.103627
-0.118466
-0.132789
-0.146809
-0.160785
-0.175526
