# vtk DataFile Version 3.0
Scalar Field
ASCII
DATASET RECTILINEAR_GRID
DIMENSIONS 100 26 1
X_COORDINATES 100 double
0.050000 0.150000 0.250000 0.350000 0.450000 0.550000 0.650000 0.750000 0.850000 0.950000 1.050000 1.150000 1.250000 1.350000 1.450000 1.550000 1.650000 1.750000 1.850000 1.950000 2.050000 2.150000 2.250000 2.350000 2.450000 2.550000 2.650000 2.750000 2.850000 2.950000 3.050000 3.150000 3.250000 3.350000 3.450000 3.550000 3.650000 3.750000 3.850000 3.950000 4.050000 4.150000 4.250000 4.350000 4.450000 4.550000 4.650000 4.750000 4.850000 4.950000 5.050000 5.150000 5.250000 5.350000 5.450000 5.550000 5.650000 5.750000 5.850000 5.950000 6.050000 6.150000 6.250000 6.350000 6.450000 6.550000 6.650000 6.750000 6.850000 6.950000 7.050000 7.150000 7.250000 7.350000 7.450000 7.550000 7.650000 7.750000 7.850000 7.950000 8.050000 8.150000 8.250000 8.350000 8.450000 8.550000 8.650000 8.750000 8.850000 8.950000 9.050000 9.150000 9.250000 9.350000 9.450000 9.550000 9.650000 9.750000 9.850000 9.950000 
Y_COORDINATES 26 double
0.050000 0.150000 0.250000 0.350000 0.450000 0.550000 0.650000 0.750000 0.850000 0.950000 1.050000 1.150000 1.250000 1.350000 1.450000 1.550000 1.650000 1.750000 1.850000 1.950000 2.050000 2.150000 2.250000 2.350000 2.450000 2.550000 
Z_COORDINATES 1 double
0.0
POINT_DATA 2600
SCALARS Skalarfeld double 1
LOOKUP_TABLE default
0.201077
0.197274
0.189255
0.176593
0.159004
0.136304
0.108479
0.075808
0.038984
-0.000823
-0.042021
-0.082839
-0.121588
-0.156838
-0.187471
-0.212657
-0.231814
-0.244597
-0.250725
-0.250370
-0.243994
-0.232324
-0.216294
-0.196951
-0.175360
-0.152513
-0.129269
-0.106316
-0.084172
-0.063213
-0.043721
-0.025965
-0.010182
0.003337
0.014016
0.021250
0.024584
0.023964
0.019938
0.013683
0.006760
0.000706
-0.003270
-0.004305
-0.002469
0.001782
0.007761
0.014702
0.021889
0.028732
0.034812
0.039894
0.043919
0.046983
0.049306
0.051189
0.052949
0.054844
0.056982
0.059651
0.062663
0.065837
0.068989
0.071894
0.074258
0.075694
0.075755
0.074035
0.070335
0.064841
0.058235
0.051615
0.046198
0.042969
0.042424
0.044226
0.047679
0.051854
0.055805
0.058795
0.060474
0.060943
0.060676
0.060303
0.060341
0.061012
0.062220
0.063785
0.065524
0.067257
0.069032
0.071017
0.073441
0.076560
0.080627
0.085886
0.092593
0.101052
0.111663
0.129025
0.204340
0.201406
0.193638
0.180961
0.163135
0.139927
0.111255
0.077363
0.038989
-0.002540
-0.045371
-0.087507
-0.127177
-0.162999
-0.193965
-0.219349
-0.238619
-0.251405
-0.257435
-0.256796
-0.249939
-0.237610
-0.220783
-0.200555
-0.178045
-0.154291
-0.130187
-0.106446
-0.083597
-0.062015
-0.041965
-0.023659
-0.007415
0.006254
0.016811
0.023650
0.026327
0.024821
0.019749
0.012389
0.004455
-0.002308
-0.006645
-0.007798
-0.005843
-0.001308
0.005041
0.012379
0.019951
0.027146
0.033539
0.038896
0.043164
0.046444
0.048963
0.051019
0.052925
0.054953
0.057304
0.059815
0.062521
0.065319
0.068070
0.070590
0.072618
0.073793
0.073682
0.071872
0.068139
0.062612
0.055886
0.049001
0.043268
0.039906
0.039236
0.040971
0.044462
0.048771
0.052932
0.056198
0.058216
0.059088
0.059280
0.059386
0.059867
0.060896
0.062388
0.064056
0.065654
0.067180
0.068725
0.070464
0.072633
0.075489
0.079282
0.084236
0.090590
0.098618
0.108681
0.124747
0.212980
0.210278
0.202661
0.189932
0.171719
0.147605
0.117309
0.080943
0.039300
-0.005966
-0.052329
-0.097248
-0.138794
-0.175736
-0.207341
-0.233119
-0.252656
-0.265603
-0.271488
-0.270319
-0.262520
-0.248862
-0.230395
-0.208321
-0.183865
-0.158162
-0.132183
-0.106698
-0.082279
-0.059322
-0.038104
-0.018851
-0.001907
0.012131
0.022595
0.028759
0.030115
0.026685
0.019246
0.009359
-0.000884
-0.009375
-0.014646
-0.016007
-0.013734
-0.008549
-0.001372
0.006858
0.015319
0.023368
0.030569
0.036690
0.041680
0.045639
0.048771
0.051338
0.053593
0.055747
0.057942
0.060195
0.062493
0.064766
0.066932
0.068866
0.070368
0.071119
0.070702
0.068694
0.064829
0.059159
0.052171
0.044800
0.038295
0.033907
0.032719
0.034158
0.037614
0.042183
0.046908
0.051026
0.054133
0.056238
0.057661
0.058834
0.060083
0.061523
0.063080
0.064588
0.065916
0.067071
0.068159
0.069393
0.071031
0.073359
0.076627
0.081006
0.086712
0.093978
0.103086
0.117232
0.226559
0.223971
0.216518
0.203803
0.185184
0.159872
0.127166
0.086839
0.039683
-0.012122
-0.064473
-0.113759
-0.157939
-0.196248
-0.228553
-0.254805
-0.274743
-0.287920
-0.293620
-0.291670
-0.282403
-0.266633
-0.245552
-0.220545
-0.193020
-0.164267
-0.135379
-0.107219
-0.080422
-0.055423
-0.032507
-0.011870
0.006199
0.020895
0.031323
0.036492
0.035753
0.029181
0.017818
0.003697
-0.010431
-0.021743
-0.028149
-0.029511
-0.026472
-0.020047
-0.011412
-0.001678
0.008236
0.017646
0.026111
0.033401
0.039465
0.044389
0.048344
0.051542
0.054193
0.056473
0.058501
0.060324
0.062077
0.063727
0.065168
0.066343
0.067150
0.067348
0.066564
0.064383
0.060504
0.054891
0.047894
0.040291
0.033193
0.027819
0.025245
0.026156
0.029371
0.034095
0.039417
0.044549
0.048993
0.052597
0.055477
0.057867
0.059971
0.061874
0.063550
0.064920
0.065926
0.066604
0.067096
0.067638
0.068519
0.070022
0.072429
0.076033
0.080891
0.087201
0.095166
0.107330
0.244861
0.242437
0.235348
0.222957
0.204207
0.177685
0.141875
0.095749
0.039840
-0.023061
-0.084847
-0.140025
-0.186971
-0.226199
-0.258798
-0.285473
-0.306083
-0.319735
-0.325387
-0.322468
-0.311115
-0.292237
-0.267297
-0.238001
-0.206047
-0.172954
-0.139983
-0.108118
-0.078078
-0.050352
-0.025233
-0.002850
0.016733
0.032416
0.042936
0.046856
0.043338
0.032562
0.015868
-0.004193
-0.024061
-0.039829
-0.048273
-0.049275
-0.044814
-0.036321
-0.025377
-0.013361
-0.001329
0.009990
0.020152
0.028944
0.036326
0.042378
0.047253
0.051140
0.054225
0.056661
0.058547
0.059915
0.060764
0.061413
0.061954
0.062158
0.062096
0.061666
0.060568
0.058403
0.054824
0.049692
0.043197
0.035919
0.028779
0.022871
0.019173
0.018960
0.021651
0.026225
0.031855
0.037746
0.043309
0.048223
0.052409
0.055921
0.058848
0.061240
0.063090
0.064358
0.065030
0.065170
0.064955
0.064663
0.064630
0.065193
0.066640
0.069218
0.073116
0.078391
0.085163
0.095398
0.267585
0.265473
0.259177
0.247787
0.229697
0.202534
0.163301
0.109151
0.039436
-0.043079
-0.119022
-0.180512
-0.228541
-0.266704
-0.298328
-0.325290
-0.347390
-0.362444
-0.368712
-0.364889
-0.350758
-0.327490
-0.297083
-0.261789
-0.223743
-0.184776
-0.146360
-0.109622
-0.075387
-0.044231
-0.016505
0.007684
0.028682
0.045626
0.056510
0.059178
0.052711
0.037585
0.015445
-0.010875
-0.037374
-0.059317
-0.072350
-0.073755
-0.067738
-0.056689
-0.042832
-0.027930
-0.013239
0.000437
0.012648
0.023195
0.032059
0.039332
0.045171
0.049759
0.053273
0.055841
0.057516
0.058289
0.058172
0.057291
0.056240
0.055271
0.054270
0.053312
0.052145
0.050350
0.047519
0.043398
0.038009
0.031719
0.025232
0.019480
0.015436
0.013905
0.015766
0.019824
0.025317
0.031481
0.037670
0.043440
0.048548
0.052897
0.056468
0.059256
0.061237
0.062380
0.062686
0.062239
0.061251
0.060049
0.059028
0.058579
0.059024
0.060585
0.063473
0.067713
0.073332
0.081769
0.294157
0.292590
0.287770
0.278537
0.262694
0.236577
0.194701
0.130230
0.038180
-0.081670
-0.176507
-0.240174
-0.283353
-0.315660
-0.343636
-0.370733
-0.396481
-0.416005
-0.424821
-0.420800
-0.403244
-0.374054
-0.336261
-0.292996
-0.247007
-0.200507
-0.155200
-0.112368
-0.072963
-0.037710
-0.007157
0.018396
0.039147
0.057028
0.068498
0.069909
0.060668
0.042121
0.016376
-0.013810
-0.044775
-0.071940
-0.090631
-0.096919
-0.090336
-0.077468
-0.061175
-0.043650
-0.026409
-0.010391
0.003892
0.016224
0.026582
0.035063
0.041825
0.047052
0.050900
0.053448
0.054673
0.054515
0.053030
0.050533
0.047567
0.045126
0.043305
0.042129
0.041288
0.040305
0.038698
0.036104
0.032385
0.027696
0.022511
0.017560
0.013681
0.011594
0.012308
0.015635
0.020568
0.026472
0.032709
0.038766
0.044287
0.049059
0.052963
0.055926
0.057889
0.058803
0.058666
0.057576
0.055773
0.053633
0.051609
0.050144
0.049599
0.050210
0.052113
0.055379
0.059950
0.066805
0.323575
0.322848
0.320393
0.314970
0.303992
0.282511
0.241511
0.166099
0.035882
-0.160885
-0.271076
-0.319732
-0.345422
-0.364042
-0.384087
-0.410666
-0.443566
-0.474812
-0.491109
-0.488961
-0.467779
-0.431342
-0.384505
-0.331659
-0.276282
-0.220993
-0.167723
-0.117904
-0.072628
-0.032825
0.000572
0.026627
0.045101
0.057835
0.069550
0.069093
0.057099
0.037348
0.012158
-0.016749
-0.046942
-0.074841
-0.096252
-0.107826
-0.105077
-0.092615
-0.075807
-0.057177
-0.038517
-0.020967
-0.005176
0.008547
0.020114
0.029577
0.037064
0.042725
0.046662
0.048864
0.049219
0.047658
0.044395
0.040063
0.035563
0.031810
0.029525
0.028555
0.028479
0.028743
0.028785
0.028143
0.026534
0.023922
0.020559
0.016963
0.013826
0.011866
0.011692
0.014001
0.018034
0.023219
0.028968
0.034752
0.040156
0.044883
0.048734
0.051569
0.053283
0.053796
0.053093
0.051278
0.048614
0.045518
0.042491
0.040027
0.038520
0.038225
0.039250
0.041635
0.045306
0.050857
0.354298
0.354701
0.355529
0.355801
0.353200
0.342479
0.311626
0.233149
0.037329
-0.335991
-0.413959
-0.404097
-0.398245
-0.397304
-0.405430
-0.429203
-0.469620
-0.519571
-0.555351
-0.559067
-0.535507
-0.492233
-0.436659
-0.374598
-0.310215
-0.246484
-0.185577
-0.129124
-0.078409
-0.034604
0.000827
0.025826
0.039410
0.044772
0.044347
0.040204
0.030163
0.015347
-0.003239
-0.024927
-0.048519
-0.071677
-0.091090
-0.103414
-0.106377
-0.097376
-0.082601
-0.065088
-0.046868
-0.029265
-0.013103
0.001150
0.013272
0.023204
0.030986
0.036679
0.040282
0.041671
0.040673
0.037307
0.032074
0.025995
0.020283
0.015871
0.013595
0.013277
0.014393
0.016297
0.018339
0.019960
0.020755
0.020524
0.019322
0.017462
0.015469
0.013955
0.013446
0.014754
0.017777
0.021946
0.026797
0.031844
0.036658
0.040897
0.044303
0.046681
0.047874
0.047773
0.046343
0.043691
0.040095
0.036004
0.031959
0.028495
0.026045
0.024888
0.025133
0.026754
0.029693
0.034236
0.384266
0.385965
0.390663
0.398047
0.407092
0.414657
0.411079
0.364848
0.133761
-0.671826
-0.579385
-0.449929
-0.422921
-0.409614
-0.408419
-0.430043
-0.473011
-0.530153
-0.588140
-0.607920
-0.585851
-0.540052
-0.480231
-0.413268
-0.343752
-0.274969
-0.209454
-0.149308
-0.096499
-0.053207
-0.021822
-0.003788
0.002194
0.000659
-0.004382
-0.009059
-0.013807
-0.019938
-0.028084
-0.038700
-0.051748
-0.066183
-0.079835
-0.089975
-0.094383
-0.091192
-0.079972
-0.065467
-0.049543
-0.033541
-0.018407
-0.004771
0.006974
0.016614
0.024045
0.029193
0.031916
0.031981
0.029213
0.023822
0.016661
0.009104
0.002558
-0.002018
-0.003821
-0.003046
-0.000321
0.003589
0.007926
0.012028
0.015383
0.017665
0.018772
0.018843
0.018246
0.017496
0.017137
0.017645
0.019604
0.022608
0.026312
0.030301
0.034169
0.037561
0.040184
0.041797
0.042206
0.041268
0.038934
0.035307
0.030679
0.025522
0.020410
0.015918
0.012519
0.010530
0.010078
0.011047
0.013412
0.017221
0.411116
0.414039
0.422443
0.436867
0.458197
0.487500
0.525251
0.567593
0.650324
-0.010751
-0.503133
-0.426880
-0.426858
-0.421023
-0.422711
-0.440559
-0.477662
-0.527367
-0.580508
-0.614713
-0.600353
-0.557789
-0.500639
-0.435949
-0.368110
-0.300582
-0.236397
-0.178432
-0.129638
-0.092932
-0.070320
-0.061169
-0.061326
-0.065126
-0.068314
-0.067179
-0.063551
-0.059314
-0.055901
-0.054466
-0.055783
-0.059891
-0.065778
-0.071518
-0.074972
-0.074579
-0.068611
-0.058214
-0.045910
-0.032857
-0.020020
-0.008144
0.002224
0.010705
0.017032
0.020968
0.022220
0.020467
0.015597
0.008069
-0.000915
-0.009710
-0.016796
-0.021211
-0.022126
-0.019828
-0.015086
-0.008822
-0.001937
0.004789
0.010749
0.015529
0.018919
0.020933
0.021809
0.021966
0.021904
0.022081
0.023074
0.024925
0.027398
0.030169
0.032880
0.035188
0.036782
0.037394
0.036798
0.034827
0.031419
0.026676
0.020901
0.014584
0.008328
0.002749
-0.001632
-0.004459
-0.005588
-0.005123
-0.003218
0.000070
0.432620
0.436415
0.447449
0.466818
0.496617
0.540483
0.604710
0.699986
0.832484
0.857904
0.000000
-0.429790
-0.432699
-0.434611
-0.441516
-0.459459
-0.486292
-0.519975
-0.555244
-0.576818
-0.575279
-0.537713
-0.488091
-0.432018
-0.372639
-0.313289
-0.257375
-0.208470
-0.170283
-0.145653
-0.134802
-0.134024
-0.137144
-0.138736
-0.134402
-0.124068
-0.110170
-0.094974
-0.080337
-0.067734
-0.058282
-0.052609
-0.050571
-0.051074
-0.052337
-0.052523
-0.050250
-0.044580
-0.036501
-0.027165
-0.017488
-0.008254
-0.000114
0.006419
0.010924
0.012999
0.012210
0.008182
0.000914
-0.008861
-0.019633
-0.029546
-0.036995
-0.041019
-0.040678
-0.036460
-0.029329
-0.020408
-0.010780
-0.001360
0.007158
0.014301
0.019805
0.023617
0.025889
0.026962
0.027297
0.027359
0.027619
0.028471
0.029773
0.031316
0.032805
0.033922
0.034357
0.033825
0.032078
0.028934
0.024322
0.018346
0.011318
0.003744
-0.003742
-0.010482
-0.015902
-0.019596
-0.021394
-0.021387
-0.019856
-0.016956
0.447191
0.451325
0.463338
0.484334
0.516292
0.562164
0.625335
0.706977
0.800284
0.883324
0.794524
0.000000
-0.440805
-0.448911
-0.458252
-0.475337
-0.493721
-0.510362
-0.521352
-0.521007
-0.505251
-0.478026
-0.437657
-0.393609
-0.347016
-0.301210
-0.259934
-0.227312
-0.207027
-0.200070
-0.203201
-0.209844
-0.213414
-0.209345
-0.194176
-0.172892
-0.148024
-0.122128
-0.097335
-0.075255
-0.057034
-0.043413
-0.034634
-0.030216
-0.028878
-0.028890
-0.028717
-0.026846
-0.022612
-0.017098
-0.010927
-0.004817
0.000550
0.004568
0.006689
0.006366
0.003043
-0.003669
-0.013617
-0.025791
-0.038407
-0.049424
-0.057142
-0.060576
-0.058658
-0.052195
-0.042390
-0.030613
-0.018152
-0.006068
0.004862
0.014135
0.021477
0.026822
0.030288
0.032174
0.032911
0.032976
0.032801
0.032790
0.033064
0.033484
0.033812
0.033759
0.033021
0.031307
0.028355
0.023975
0.018095
0.010820
0.002471
-0.006428
-0.015215
-0.023188
-0.029712
-0.034326
-0.036823
-0.037288
-0.036103
-0.033556
0.454202
0.458140
0.469509
0.489048
0.517919
0.557505
0.609004
0.671108
0.731348
0.748809
0.705725
0.584656
0.000000
-0.462229
-0.475546
-0.496103
-0.511267
-0.509103
-0.488322
-0.456679
-0.421445
-0.387442
-0.352740
-0.319018
-0.286865
-0.258140
-0.237613
-0.229008
-0.233698
-0.248664
-0.266716
-0.279625
-0.281688
-0.266884
-0.241422
-0.209414
-0.174262
-0.138898
-0.105626
-0.076080
-0.051302
-0.031892
-0.018095
-0.009707
-0.005879
-0.005133
-0.005747
-0.006162
-0.005593
-0.003628
-0.000857
0.002071
0.004481
0.005716
0.005125
0.002037
-0.004191
-0.013909
-0.026774
-0.041501
-0.056049
-0.068194
-0.076117
-0.078726
-0.074988
-0.066082
-0.053483
-0.038822
-0.023602
-0.009027
0.004054
0.015129
0.023951
0.030483
0.034857
0.037364
0.038420
0.038500
0.038056
0.037412
0.036869
0.036354
0.035678
0.034578
0.032760
0.029928
0.025816
0.020228
0.013094
0.004525
-0.005149
-0.015390
-0.025508
-0.034756
-0.042442
-0.048043
-0.051305
-0.052301
-0.051498
-0.049361
0.454007
0.457373
0.467016
0.483300
0.506671
0.537247
0.573674
0.611088
0.636449
0.623565
0.554827
0.463588
0.289311
0.000000
-0.505720
-0.535893
-0.550963
-0.523687
-0.464144
-0.395443
-0.332960
-0.282946
-0.246607
-0.221447
-0.201197
-0.191273
-0.196490
-0.217216
-0.250071
-0.287389
-0.319001
-0.336309
-0.332745
-0.307556
-0.272249
-0.231012
-0.187597
-0.145081
-0.105750
-0.071114
-0.042022
-0.018853
-0.001689
0.009626
0.015635
0.017446
0.016610
0.014650
0.012915
0.012114
0.011986
0.012043
0.011654
0.010132
0.006746
0.000726
-0.008606
-0.021510
-0.037416
-0.054760
-0.071260
-0.084517
-0.092619
-0.093996
-0.088370
-0.077020
-0.061725
-0.044383
-0.026694
-0.009986
0.004846
0.017299
0.027179
0.034507
0.039464
0.042355
0.043596
0.043661
0.042997
0.041954
0.040826
0.039606
0.038144
0.036197
0.033473
0.029677
0.024536
0.017855
0.009566
-0.000211
-0.011142
-0.022673
-0.034092
-0.044612
-0.053489
-0.060140
-0.064256
-0.065882
-0.065547
-0.063941
0.447646
0.450224
0.457518
0.469492
0.485866
0.505649
0.526222
0.541828
0.541398
0.507109
0.420764
0.271439
0.115035
-0.331767
-0.637477
-0.586537
-0.580451
-0.527143
-0.437251
-0.339770
-0.255063
-0.190505
-0.145703
-0.120939
-0.109761
-0.119870
-0.151572
-0.200429
-0.257983
-0.313044
-0.353870
-0.371566
-0.357614
-0.325882
-0.283699
-0.236349
-0.187922
-0.141477
-0.099112
-0.062088
-0.031000
-0.005976
0.013099
0.026441
0.034397
0.037663
0.037419
0.035118
0.032065
0.029178
0.026826
0.024564
0.021781
0.017766
0.011718
0.002805
-0.009630
-0.025696
-0.044570
-0.064415
-0.082722
-0.096918
-0.104991
-0.105027
-0.097503
-0.083904
-0.066265
-0.046702
-0.027073
-0.008786
0.007247
0.020560
0.031026
0.038743
0.043951
0.046988
0.048276
0.048285
0.047469
0.046172
0.044658
0.042967
0.040962
0.038408
0.035010
0.030465
0.024499
0.016913
0.007644
-0.003184
-0.015229
-0.027929
-0.040554
-0.052289
-0.062346
-0.070089
-0.075156
-0.077544
-0.077791
-0.076853
0.436542
0.438233
0.442935
0.450320
0.459636
0.469312
0.476300
0.475137
0.456837
0.408004
0.310768
0.139827
-0.158791
-0.778568
-0.688416
-0.585037
-0.541295
-0.476717
-0.385916
-0.288032
-0.200467
-0.130901
-0.078169
-0.046260
-0.040803
-0.066617
-0.118765
-0.187026
-0.259374
-0.323065
-0.366482
-0.376690
-0.356758
-0.320897
-0.275612
-0.226214
-0.176712
-0.129930
-0.087674
-0.050921
-0.020021
0.005100
0.024741
0.039231
0.048852
0.053958
0.055214
0.053659
0.050453
0.046520
0.042804
0.038920
0.034295
0.028203
0.019797
0.008228
-0.007081
-0.026039
-0.047558
-0.069546
-0.089296
-0.104090
-0.111848
-0.110483
-0.101251
-0.085830
-0.066447
-0.045371
-0.024550
-0.005420
0.011136
0.024714
0.035267
0.042970
0.048123
0.051098
0.052319
0.052242
0.051311
0.049886
0.048168
0.046226
0.043923
0.041016
0.037201
0.032162
0.025616
0.017363
0.007341
-0.004324
-0.017285
-0.030978
-0.044662
-0.057505
-0.068690
-0.077540
-0.083640
-0.086933
-0.087887
-0.087739
0.422308
0.423145
0.425385
0.428543
0.431652
0.432977
0.429592
0.416844
0.387799
0.332764
0.238727
0.088081
-0.142667
-0.440714
-0.503995
-0.487647
-0.450944
-0.397921
-0.327963
-0.250542
-0.176748
-0.113249
-0.063047
-0.021340
-0.017192
-0.050756
-0.110272
-0.182918
-0.255882
-0.316190
-0.352181
-0.352485
-0.331005
-0.295139
-0.251145
-0.203951
-0.157174
-0.113276
-0.073763
-0.039390
-0.010362
0.013487
0.032538
0.047225
0.057899
0.064795
0.068180
0.068529
0.066471
0.062877
0.058815
0.054084
0.048244
0.040596
0.030282
0.016486
-0.001232
-0.022552
-0.046127
-0.069653
-0.090270
-0.105165
-0.112205
-0.109520
-0.098943
-0.082317
-0.061989
-0.040297
-0.019196
-0.000081
0.016241
0.029453
0.039593
0.046910
0.051750
0.054504
0.055587
0.055430
0.054449
0.052989
0.051239
0.049245
0.046869
0.043852
0.039875
0.034604
0.027741
0.019082
0.008559
-0.003701
-0.017352
-0.031830
-0.046395
-0.060209
-0.072440
-0.082387
-0.089586
-0.093916
-0.095713
-0.096448
0.406497
0.406592
0.406721
0.406353
0.404499
0.399533
0.388943
0.369082
0.334975
0.280312
0.197761
0.080235
-0.073682
-0.242711
-0.330534
-0.357231
-0.348954
-0.317612
-0.271426
-0.217419
-0.162764
-0.112348
-0.067863
-0.040219
-0.040527
-0.069602
-0.120632
-0.182884
-0.243959
-0.291369
-0.311828
-0.308503
-0.288097
-0.255872
-0.216841
-0.175111
-0.133742
-0.094828
-0.059651
-0.028859
-0.002628
0.019188
0.036934
0.051037
0.061905
0.069841
0.075034
0.077615
0.077719
0.076304
0.073089
0.068435
0.062148
0.053611
0.042011
0.026626
0.007196
-0.015717
-0.040538
-0.064800
-0.085561
-0.099990
-0.106003
-0.102060
-0.090589
-0.073481
-0.053113
-0.031792
-0.011390
0.006817
0.022143
0.034381
0.043654
0.050266
0.054594
0.057028
0.057955
0.057762
0.056821
0.055443
0.053816
0.051945
0.049690
0.046779
0.042871
0.037611
0.030684
0.021869
0.011096
-0.001517
-0.015629
-0.030683
-0.045947
-0.060588
-0.073775
-0.084793
-0.093143
-0.098634
-0.101428
-0.103148
0.390465
0.389964
0.388416
0.385321
0.379789
0.370437
0.355279
0.331647
0.296224
0.245295
0.175436
0.085039
-0.022164
-0.131831
-0.208390
-0.248067
-0.258555
-0.247598
-0.222105
-0.187880
-0.150281
-0.114087
-0.084297
-0.067598
-0.069931
-0.092230
-0.130248
-0.176003
-0.219406
-0.250019
-0.261606
-0.257468
-0.240195
-0.213446
-0.180939
-0.145890
-0.110808
-0.077474
-0.047030
-0.020087
0.003145
0.022744
0.038975
0.052204
0.062813
0.071129
0.077365
0.081595
0.084133
0.085043
0.083600
0.080044
0.074231
0.065637
0.053551
0.037405
0.017150
-0.006421
-0.031542
-0.055641
-0.075767
-0.089182
-0.093568
-0.088721
-0.076899
-0.060072
-0.040574
-0.020587
-0.001808
0.014669
0.028321
0.039066
0.047104
0.052778
0.056466
0.058538
0.059335
0.059184
0.058396
0.057241
0.055878
0.054280
0.052306
0.049675
0.046028
0.040986
0.034211
0.025465
0.014662
0.001911
-0.012457
-0.027898
-0.043697
-0.059034
-0.073094
-0.085157
-0.094705
-0.101484
-0.105472
-0.108375
0.375301
0.374349
0.371549
0.366474
0.358385
0.346190
0.328411
0.303205
0.268498
0.222300
0.163336
0.092124
0.012670
-0.065972
-0.128592
-0.169313
-0.189126
-0.191641
-0.181267
-0.162453
-0.139543
-0.116737
-0.098315
-0.088732
-0.091416
-0.106969
-0.132653
-0.162980
-0.190939
-0.209697
-0.216595
-0.212220
-0.197974
-0.176229
-0.149620
-0.120593
-0.091168
-0.062857
-0.036682
-0.013234
0.007244
0.024768
0.039533
0.051840
0.062031
0.070422
0.077244
0.082598
0.086992
0.089461
0.089816
0.087868
0.083243
0.075378
0.063645
0.047635
0.027506
0.004255
-0.020207
-0.043251
-0.061977
-0.073847
-0.076212
-0.070870
-0.059260
-0.043431
-0.025607
-0.007758
0.008654
0.022764
0.034235
0.043114
0.049674
0.054273
0.057274
0.058999
0.059727
0.059712
0.059189
0.058418
0.057431
0.056224
0.054653
0.052432
0.049188
0.044518
0.038061
0.029557
0.018901
0.006185
-0.008275
-0.023953
-0.040153
-0.056081
-0.070941
-0.084030
-0.094825
-0.103033
-0.108493
-0.112996
0.361832
0.360553
0.356861
0.350420
0.340656
0.326747
0.307643
0.282133
0.248994
0.207280
0.156777
0.098649
0.036180
-0.024861
-0.076835
-0.115195
-0.138978
-0.149528
-0.149414
-0.141751
-0.129858
-0.117079
-0.106702
-0.101745
-0.104305
-0.114728
-0.131268
-0.150402
-0.167682
-0.179068
-0.182544
-0.177767
-0.165524
-0.147353
-0.125123
-0.100690
-0.075677
-0.051363
-0.028653
-0.008100
0.010044
0.025763
0.039212
0.050649
0.060380
0.068707
0.075877
0.082134
0.087310
0.090952
0.092759
0.092334
0.089122
0.082456
0.071718
0.056607
0.037437
0.015358
-0.007619
-0.028847
-0.045493
-0.055135
-0.056178
-0.050558
-0.039642
-0.025377
-0.009785
0.005416
0.019028
0.030417
0.039435
0.046261
0.051234
0.054728
0.057066
0.058508
0.059254
0.059474
0.059323
0.059025
0.058504
0.057772
0.056683
0.054951
0.052192
0.047989
0.041957
0.033809
0.023418
0.010856
-0.003581
-0.019387
-0.035890
-0.052323
-0.067921
-0.082011
-0.094095
-0.103885
-0.111196
-0.118109
0.350657
0.349141
0.344828
0.337481
0.326673
0.311807
0.292160
0.266963
0.235544
0.197549
0.153249
0.103906
0.052071
0.001582
-0.043098
-0.078722
-0.103949
-0.119074
-0.125529
-0.125422
-0.121201
-0.115421
-0.110541
-0.108681
-0.111221
-0.118392
-0.129095
-0.141105
-0.151628
-0.158177
-0.158973
-0.153572
-0.142390
-0.126463
-0.107161
-0.085927
-0.064089
-0.042735
-0.022665
-0.004382
0.011877
0.026094
0.038409
0.049066
0.058354
0.066561
0.073931
0.080642
0.086388
0.090918
0.093860
0.094710
0.092821
0.087467
0.078028
0.064260
0.046573
0.026214
0.005240
-0.013740
-0.028052
-0.035482
-0.035753
-0.030283
-0.020430
-0.008002
0.005188
0.017661
0.028445
0.037110
0.043675
0.048452
0.051862
0.054299
0.056054
0.057312
0.058177
0.058718
0.059065
0.059212
0.059186
0.058961
0.058380
0.057156
0.054905
0.051197
0.045628
0.037886
0.027819
0.015475
0.001127
-0.014739
-0.031475
-0.048340
-0.064605
-0.079645
-0.093023
-0.104528
-0.114137
-0.124866
0.342212
0.340493
0.335731
0.327792
0.316362
0.301006
0.281226
0.256541
0.226614
0.191412
0.151411
0.107801
0.062598
0.018536
-0.021401
-0.054822
-0.080435
-0.098088
-0.108568
-0.113311
-0.114130
-0.112976
-0.111723
-0.111935
-0.114608
-0.119931
-0.127198
-0.134950
-0.141346
-0.144662
-0.143514
-0.137473
-0.126768
-0.112149
-0.094683
-0.075548
-0.055864
-0.036580
-0.018409
-0.001806
0.013015
0.026045
0.037430
0.047419
0.056306
0.064383
0.071896
0.078862
0.085095
0.090361
0.094247
0.096178
0.095447
0.091307
0.083151
0.070779
0.054666
0.036112
0.017179
0.000380
-0.011837
-0.017771
-0.017828
-0.012789
-0.004054
0.006677
0.017758
0.027884
0.036246
0.042554
0.046960
0.049895
0.051880
0.053364
0.054633
0.055808
0.056888
0.057808
0.058567
0.059173
0.059632
0.059888
0.059779
0.059021
0.057235
0.053985
0.048851
0.041501
0.031754
0.019636
0.005398
-0.010495
-0.027410
-0.044632
-0.061465
-0.077339
-0.091923
-0.105129
-0.117443
-0.134040
0.336877
0.334851
0.329706
0.321376
0.309594
0.294014
0.274269
0.250050
0.221202
0.187854
0.150559
0.110416
0.069105
0.028766
-0.008335
-0.040294
-0.065931
-0.084916
-0.097694
-0.105303
-0.109152
-0.110801
-0.111752
-0.113252
-0.116088
-0.120441
-0.125826
-0.131196
-0.135192
-0.136514
-0.134117
-0.127596
-0.117096
-0.103211
-0.086833
-0.068976
-0.050632
-0.032657
-0.015702
-0.000192
0.013676
0.025899
0.036626
0.046108
0.054651
0.062569
0.070160
0.077318
0.083980
0.089878
0.094556
0.097382
0.097600
0.094437
0.087292
0.076005
0.061102
0.043925
0.026524
0.011287
0.000438
-0.004950
-0.004959
-0.000354
0.007504
0.017009
0.026629
0.035162
0.041885
0.046581
0.049465
0.051039
0.051903
0.052582
0.053412
0.054537
0.055786
0.056996
0.058134
0.059156
0.060028
0.060679
0.060946
0.060556
0.059135
0.056249
0.051466
0.044433
0.034948
0.023012
0.008859
-0.007058
-0.024114
-0.041604
-0.058856
-0.075354
-0.090848
-0.105661
-0.120638
-0.145001
0.335227
0.332290
0.326762
0.318198
0.306255
0.290602
0.270928
0.246999
0.218738
0.186336
0.150366
0.111866
0.072358
0.033720
-0.002078
-0.033342
-0.058958
-0.078532
-0.092363
-0.101309
-0.106581
-0.109550
-0.111542
-0.113655
-0.116592
-0.120531
-0.125090
-0.129412
-0.132404
-0.132855
-0.129896
-0.123165
-0.112775
-0.099249
-0.083392
-0.066137
-0.048410
-0.031022
-0.014594
0.000462
0.013954
0.025874
0.036365
0.045672
0.054087
0.061892
0.069255
0.076522
0.083520
0.089907
0.095167
0.098620
0.099460
0.096877
0.090257
0.079450
0.065024
0.048380
0.031597
0.016977
0.006381
0.001064
0.000976
0.005283
0.012665
0.021580
0.030564
0.038464
0.044583
0.048711
0.051062
0.052135
0.052539
0.052818
0.053319
0.054122
0.055270
0.056666
0.058071
0.059373
0.060517
0.061423
0.061933
0.061779
0.060593
0.057937
0.053369
0.046519
0.037165
0.025294
0.011130
-0.004873
-0.022081
-0.039775
-0.057287
-0.074166
-0.090364
-0.106256
-0.122978
-0.153620
