# vtk DataFile Version 3.0
Scalar Field
ASCII
DATASET RECTILINEAR_GRID
DIMENSIONS 100 26 1
X_COORDINATES 100 double
0.050000 0.150000 0.250000 0.350000 0.450000 0.550000 0.650000 0.750000 0.850000 0.950000 1.050000 1.150000 1.250000 1.350000 1.450000 1.550000 1.650000 1.750000 1.850000 1.950000 2.050000 2.150000 2.250000 2.350000 2.450000 2.550000 2.650000 2.750000 2.850000 2.950000 3.050000 3.150000 3.250000 3.350000 3.450000 3.550000 3.650000 3.750000 3.850000 3.950000 4.050000 4.150000 4.250000 4.350000 4.450000 4.550000 4.650000 4.750000 4.850000 4.950000 5.050000 5.150000 5.250000 5.350000 5.450000 5.550000 5.650000 5.750000 5.850000 5.950000 6.050000 6.150000 6.250000 6.350000 6.450000 6.550000 6.650000 6.750000 6.850000 6.950000 7.050000 7.150000 7.250000 7.350000 7.450000 7.550000 7.650000 7.750000 7.850000 7.950000 8.050000 8.150000 8.250000 8.350000 8.450000 8.550000 8.650000 8.750000 8.850000 8.950000 9.050000 9.150000 9.250000 9.350000 9.450000 9.550000 9.650000 9.750000 9.850000 9.950000 
Y_COORDINATES 26 double
0.050000 0.150000 0.250000 0.350000 0.450000 0.550000 0.650000 0.750000 0.850000 0.950000 1.050000 1.150000 1.250000 1.350000 1.450000 1.550000 1.650000 1.750000 1.850000 1.950000 2.050000 2.150000 2.250000 2.350000 2.450000 2.550000 
Z_COORDINATES 1 double
0.0
POINT_DATA 2600
SCALARS Skalarfeld double 1
LOOKUP_TABLE default
0.170157
0.166139
0.157525
0.143892
0.124977
0.100642
0.070966
0.036384
-0.002179
-0.043241
-0.084847
-0.124853
-0.161255
-0.192422
-0.217208
-0.234960
-0.245448
-0.248770
-0.245491
-0.236441
-0.222628
-0.205159
-0.185157
-0.163701
-0.141783
-0.120298
-0.100047
-0.081772
-0.066007
-0.053346
-0.044238
-0.038842
-0.036867
-0.037505
-0.039529
-0.041569
-0.042402
-0.040978
-0.037059
-0.030833
-0.022794
-0.013600
-0.003935
0.005582
0.014460
0.022368
0.029141
0.034771
0.039388
0.043231
0.046611
0.049853
0.053212
0.056930
0.061164
0.065685
0.070193
0.074309
0.077573
0.079458
0.079431
0.077073
0.072271
0.065406
0.057415
0.049632
0.043395
0.039763
0.039110
0.041028
0.044766
0.049396
0.054024
0.057969
0.060885
0.062803
0.064072
0.065220
0.066755
0.068996
0.071983
0.075645
0.079869
0.084461
0.089420
0.094876
0.101018
0.108037
0.116085
0.125246
0.135529
0.146873
0.159192
0.172424
0.186598
0.201887
0.218615
0.237198
0.257964
0.287748
0.173795
0.170636
0.162248
0.148556
0.129337
0.104402
0.073757
0.037801
-0.002494
-0.045481
-0.088927
-0.130441
-0.167912
-0.199722
-0.224792
-0.242528
-0.252749
-0.255571
-0.251583
-0.241649
-0.226824
-0.208261
-0.187132
-0.164562
-0.141581
-0.119114
-0.097981
-0.078908
-0.062674
-0.049914
-0.041096
-0.036371
-0.035388
-0.037214
-0.040441
-0.043476
-0.044979
-0.043942
-0.040111
-0.033745
-0.025426
-0.015882
-0.005852
0.004014
0.013209
0.021397
0.028411
0.034249
0.039045
0.043041
0.046549
0.049904
0.053419
0.057211
0.061223
0.065374
0.069437
0.073089
0.075924
0.077462
0.077193
0.074695
0.069812
0.062844
0.054639
0.046514
0.039995
0.036271
0.035547
0.037503
0.041392
0.046259
0.051177
0.055444
0.058704
0.060988
0.062645
0.064187
0.066092
0.068647
0.071910
0.075689
0.079741
0.084089
0.088771
0.093945
0.099808
0.106555
0.114340
0.123248
0.133285
0.144393
0.156490
0.169523
0.183530
0.198696
0.215372
0.234052
0.255296
0.288913
0.183201
0.180258
0.171974
0.158147
0.138412
0.112385
0.079862
0.041104
-0.002862
-0.050043
-0.097488
-0.142208
-0.181876
-0.214957
-0.240556
-0.258252
-0.267942
-0.269721
-0.264259
-0.252493
-0.235555
-0.214694
-0.191181
-0.166240
-0.140994
-0.116450
-0.093508
-0.073002
-0.055831
-0.042802
-0.034529
-0.031212
-0.032393
-0.036857
-0.042772
-0.048107
-0.051212
-0.050986
-0.047291
-0.040588
-0.031641
-0.021323
-0.010472
0.000205
0.010172
0.019084
0.026775
0.033243
0.038616
0.043119
0.047030
0.050629
0.054158
0.057781
0.061493
0.065168
0.068628
0.071617
0.073809
0.074793
0.074090
0.071261
0.066089
0.058769
0.050036
0.041139
0.033635
0.028981
0.027930
0.029838
0.033963
0.039336
0.044995
0.050194
0.054526
0.057954
0.060735
0.063268
0.065917
0.068889
0.072213
0.075796
0.079541
0.083429
0.087613
0.092270
0.097602
0.103826
0.111100
0.119520
0.129098
0.139778
0.151477
0.164146
0.177827
0.192711
0.209176
0.227801
0.249376
0.284417
0.197963
0.195114
0.186930
0.173000
0.152672
0.125171
0.089849
0.046606
-0.003529
-0.058021
-0.112243
-0.162046
-0.204907
-0.239642
-0.265785
-0.283199
-0.291851
-0.291907
-0.284095
-0.269428
-0.249162
-0.224694
-0.197456
-0.168828
-0.140079
-0.112341
-0.086610
-0.063798
-0.045071
-0.031554
-0.024162
-0.023230
-0.028138
-0.037164
-0.047693
-0.056829
-0.062241
-0.062970
-0.059190
-0.051699
-0.041567
-0.029898
-0.017676
-0.005687
0.005505
0.015545
0.024269
0.031669
0.037859
0.043035
0.047433
0.051293
0.054826
0.058174
0.061463
0.064601
0.067354
0.069535
0.070925
0.071218
0.069994
0.066823
0.061436
0.053911
0.044822
0.035261
0.026696
0.020606
0.018476
0.020123
0.024354
0.030247
0.036808
0.043218
0.048970
0.053896
0.058099
0.061826
0.065326
0.068762
0.072189
0.075587
0.078933
0.082264
0.085716
0.089534
0.094058
0.099537
0.106064
0.113778
0.122713
0.132818
0.144008
0.156226
0.169502
0.184016
0.200137
0.218458
0.239824
0.274032
0.217908
0.215198
0.207304
0.193559
0.172869
0.143796
0.104835
0.055046
-0.004822
-0.071634
-0.136546
-0.193371
-0.239922
-0.276145
-0.302462
-0.319088
-0.326008
-0.323520
-0.312304
-0.293452
-0.268398
-0.238766
-0.206227
-0.172390
-0.138730
-0.106551
-0.076963
-0.050887
-0.029818
-0.015484
-0.009354
-0.012034
-0.022675
-0.038790
-0.056538
-0.071558
-0.080184
-0.081694
-0.077222
-0.068096
-0.055877
-0.042015
-0.027692
-0.013783
-0.000877
0.010679
0.020731
0.029278
0.036428
0.042362
0.047296
0.051448
0.054996
0.058038
0.060565
0.062916
0.064783
0.065934
0.066308
0.065777
0.064043
0.060713
0.055467
0.048244
0.039411
0.029828
0.020777
0.013712
0.009890
0.010683
0.014630
0.020733
0.027968
0.035440
0.042518
0.048877
0.054451
0.059337
0.063681
0.067607
0.071181
0.074423
0.077352
0.080042
0.082673
0.085530
0.088950
0.093325
0.098919
0.105773
0.113949
0.123401
0.134036
0.145775
0.158624
0.172723
0.188394
0.206171
0.226824
0.258944
0.242777
0.240356
0.233185
0.220300
0.200018
0.169880
0.126819
0.067983
-0.007117
-0.095554
-0.176611
-0.241463
-0.290602
-0.326974
-0.352597
-0.367747
-0.372237
-0.366367
-0.350544
-0.325966
-0.294359
-0.257695
-0.217987
-0.177163
-0.136990
-0.099028
-0.064571
-0.034528
-0.010194
0.005540
0.010289
0.003065
-0.014951
-0.040385
-0.068028
-0.091670
-0.105595
-0.107897
-0.102009
-0.090239
-0.074895
-0.057905
-0.040699
-0.024242
-0.009136
0.004297
0.015933
0.025796
0.034006
0.040749
0.046240
0.050680
0.054203
0.056835
0.058516
0.059177
0.059571
0.059391
0.058527
0.057169
0.055155
0.052093
0.047576
0.041378
0.033632
0.024923
0.016270
0.008958
0.004218
0.003260
0.006605
0.012419
0.019805
0.027845
0.035806
0.043217
0.049853
0.055666
0.060704
0.065038
0.068718
0.071769
0.074225
0.076188
0.077880
0.079650
0.081913
0.085067
0.089542
0.095433
0.102794
0.111570
0.121649
0.132925
0.145361
0.159036
0.174192
0.191260
0.210868
0.240321
0.272035
0.270147
0.264404
0.253568
0.235308
0.205783
0.159289
0.088781
-0.010770
-0.140144
-0.243134
-0.312395
-0.358867
-0.391993
-0.415941
-0.429636
-0.431780
-0.422081
-0.400481
-0.368483
-0.328343
-0.282564
-0.233633
-0.183900
-0.135530
-0.090478
-0.050459
-0.016777
0.011092
0.029092
0.032924
0.021332
-0.003803
-0.038228
-0.075910
-0.109617
-0.132290
-0.137830
-0.130500
-0.115800
-0.096941
-0.076435
-0.055995
-0.036691
-0.019136
-0.003634
0.009723
0.020982
0.030284
0.037828
0.043829
0.048455
0.051757
0.053652
0.054024
0.052921
0.050685
0.048641
0.046547
0.044712
0.042940
0.040759
0.037645
0.033215
0.027373
0.020420
0.013083
0.006413
0.001558
-0.000549
0.001532
0.006506
0.013424
0.021378
0.029586
0.037471
0.044675
0.051023
0.056461
0.060991
0.064624
0.067364
0.069244
0.070386
0.071055
0.071667
0.072721
0.074696
0.077978
0.082859
0.089386
0.097493
0.107043
0.117895
0.129952
0.143219
0.157836
0.174104
0.192488
0.219072
0.304705
0.303661
0.300286
0.293232
0.279722
0.254506
0.208112
0.124988
-0.016117
-0.229298
-0.351296
-0.406859
-0.437713
-0.461835
-0.484560
-0.500539
-0.502882
-0.490114
-0.462123
-0.421392
-0.371115
-0.314529
-0.254714
-0.194546
-0.136690
-0.083629
-0.037762
-0.001365
0.024849
0.045735
0.049155
0.034317
0.004843
-0.033978
-0.076402
-0.115865
-0.145417
-0.159782
-0.153837
-0.137991
-0.116988
-0.094037
-0.071165
-0.049581
-0.029963
-0.012649
0.002248
0.014760
0.025020
0.033216
0.039527
0.044035
0.046642
0.047135
0.045447
0.041968
0.037569
0.033362
0.030479
0.028803
0.027932
0.027263
0.026162
0.024108
0.020810
0.016308
0.011036
0.005780
0.001529
-0.000766
-0.000378
0.003564
0.009518
0.016764
0.024557
0.032273
0.039466
0.045858
0.051299
0.055713
0.059056
0.061299
0.062462
0.062677
0.062253
0.061666
0.061490
0.062269
0.064411
0.068263
0.073957
0.081418
0.090482
0.100956
0.112679
0.125564
0.139638
0.155064
0.172141
0.195843
0.339240
0.339355
0.339342
0.338094
0.333064
0.318597
0.281932
0.194131
-0.018198
-0.421564
-0.512044
-0.505574
-0.503121
-0.512333
-0.536296
-0.565536
-0.575731
-0.562867
-0.529625
-0.480764
-0.420774
-0.353693
-0.283239
-0.212914
-0.146039
-0.085729
-0.035110
0.002251
0.024198
0.033650
0.033822
0.019431
-0.006061
-0.039336
-0.076550
-0.112824
-0.142470
-0.160549
-0.162789
-0.148791
-0.128579
-0.105747
-0.082533
-0.060291
-0.039829
-0.021604
-0.005838
0.007412
0.018199
0.026633
0.032786
0.036574
0.037728
0.036019
0.031684
0.025688
0.019466
0.014263
0.011338
0.010511
0.011166
0.012554
0.013935
0.014672
0.014318
0.012698
0.009978
0.006678
0.003580
0.001539
0.001224
0.003723
0.008342
0.014396
0.021210
0.028173
0.034794
0.040725
0.045735
0.049675
0.052438
0.053954
0.054224
0.053390
0.051793
0.049961
0.048526
0.048091
0.049110
0.051930
0.056805
0.063651
0.072274
0.082422
0.093851
0.106376
0.119905
0.134463
0.150191
0.171067
0.373526
0.374998
0.379025
0.385180
0.392222
0.396595
0.387792
0.332353
0.081318
-0.780138
-0.694046
-0.558297
-0.527826
-0.523375
-0.546958
-0.593747
-0.626727
-0.618882
-0.585279
-0.533478
-0.468880
-0.396073
-0.319417
-0.243284
-0.172316
-0.111224
-0.063951
-0.032616
-0.016842
-0.013482
-0.017667
-0.026403
-0.040669
-0.060077
-0.083352
-0.107945
-0.130016
-0.145396
-0.151108
-0.144249
-0.127776
-0.107927
-0.086931
-0.066196
-0.046655
-0.028930
-0.013419
-0.000345
0.010194
0.018150
0.023412
0.025697
0.024642
0.020203
0.013138
0.005032
-0.002313
-0.007614
-0.009767
-0.009071
-0.006314
-0.002394
0.001823
0.005594
0.008357
0.009779
0.009816
0.008751
0.007161
0.005789
0.005339
0.006426
0.009699
0.014306
0.019762
0.025528
0.031119
0.036148
0.040327
0.043441
0.045327
0.045873
0.045059
0.043031
0.040156
0.037004
0.034256
0.032570
0.032464
0.034230
0.038292
0.044555
0.052780
0.062642
0.073805
0.085974
0.098937
0.112587
0.126919
0.145014
0.405094
0.407878
0.415866
0.429524
0.449602
0.476922
0.511453
0.548093
0.623245
-0.078447
-0.614065
-0.534084
-0.529826
-0.528243
-0.545592
-0.585971
-0.627062
-0.633953
-0.606381
-0.560003
-0.499759
-0.430358
-0.356911
-0.284861
-0.220202
-0.168043
-0.131456
-0.110096
-0.100116
-0.097182
-0.094336
-0.091138
-0.089666
-0.091204
-0.096342
-0.104656
-0.114359
-0.122604
-0.126541
-0.124444
-0.114530
-0.099613
-0.082902
-0.065634
-0.048780
-0.033102
-0.019180
-0.007430
0.001850
0.008408
0.011913
0.011906
0.008050
0.000663
-0.008908
-0.018594
-0.026433
-0.031215
-0.031897
-0.029044
-0.023633
-0.016753
-0.009422
-0.002494
0.003384
0.007782
0.010523
0.011716
0.011761
0.011277
0.010951
0.011380
0.013178
0.016240
0.020154
0.024463
0.028719
0.032525
0.035558
0.037555
0.038303
0.037652
0.035565
0.032191
0.027915
0.023341
0.019195
0.016188
0.014904
0.015618
0.018868
0.024564
0.032415
0.042010
0.052906
0.064691
0.077030
0.089693
0.102551
0.117847
0.431564
0.435324
0.446245
0.465405
0.494880
0.538320
0.602130
0.697383
0.831292
0.868182
0.000000
-0.534497
-0.534911
-0.532005
-0.543104
-0.566490
-0.590933
-0.601687
-0.583008
-0.546396
-0.496964
-0.439136
-0.378812
-0.321811
-0.275296
-0.242560
-0.223099
-0.211737
-0.203111
-0.192205
-0.176352
-0.157969
-0.139569
-0.123218
-0.110471
-0.102214
-0.098308
-0.097377
-0.097184
-0.095519
-0.090891
-0.082073
-0.070755
-0.058198
-0.045341
-0.033003
-0.021893
-0.012600
-0.005614
-0.001403
-0.000521
-0.003542
-0.010656
-0.021088
-0.032952
-0.043852
-0.051773
-0.055548
-0.054166
-0.048582
-0.040026
-0.029824
-0.019184
-0.009077
-0.000218
0.006927
0.012123
0.015383
0.016981
0.017428
0.017352
0.017336
0.018038
0.019716
0.022108
0.024888
0.027673
0.030082
0.031777
0.032458
0.031877
0.029854
0.026337
0.021480
0.015684
0.009582
0.003940
-0.000476
-0.003025
-0.003313
-0.000916
0.004199
0.011666
0.020971
0.031553
0.042875
0.054481
0.066025
0.077274
0.089666
0.451166
0.455369
0.467570
0.488899
0.521397
0.568168
0.633106
0.717760
0.814643
0.905072
0.825311
0.000000
-0.533971
-0.533030
-0.527983
-0.531663
-0.537604
-0.537088
-0.521806
-0.491433
-0.452466
-0.410991
-0.372491
-0.343195
-0.326492
-0.319594
-0.318771
-0.315180
-0.303425
-0.278727
-0.247786
-0.213583
-0.179199
-0.147203
-0.119521
-0.097472
-0.081694
-0.071887
-0.066671
-0.063967
-0.061795
-0.058232
-0.052038
-0.044523
-0.036288
-0.028073
-0.020634
-0.014671
-0.010836
-0.009804
-0.012321
-0.019000
-0.029775
-0.043381
-0.057471
-0.069428
-0.077239
-0.079422
-0.075526
-0.066759
-0.054696
-0.040953
-0.026944
-0.013764
-0.002170
0.007373
0.014641
0.019626
0.022544
0.023827
0.024063
0.023864
0.023748
0.024217
0.025227
0.026560
0.027895
0.028882
0.029175
0.028455
0.026448
0.022953
0.017912
0.011484
0.004086
-0.003624
-0.010838
-0.016729
-0.020588
-0.021940
-0.020417
-0.015927
-0.008908
0.000022
0.010178
0.020892
0.031589
0.041818
0.051257
0.060540
0.463095
0.467190
0.479004
0.499326
0.529394
0.570606
0.624038
0.689441
0.756087
0.780820
0.745550
0.632218
0.000000
-0.520056
-0.507081
-0.489010
-0.477510
-0.460553
-0.436440
-0.407141
-0.378887
-0.357054
-0.346511
-0.350230
-0.367061
-0.388312
-0.404467
-0.405186
-0.381823
-0.344654
-0.299607
-0.251187
-0.203259
-0.158812
-0.119923
-0.087888
-0.063400
-0.046555
-0.036633
-0.032004
-0.030482
-0.029940
-0.028566
-0.025810
-0.022173
-0.018280
-0.014874
-0.012715
-0.012590
-0.015359
-0.021910
-0.032791
-0.047585
-0.064527
-0.080868
-0.093799
-0.101291
-0.101493
-0.094688
-0.082455
-0.066744
-0.049470
-0.032245
-0.016269
-0.002319
0.009176
0.018050
0.024334
0.028241
0.030168
0.030663
0.030334
0.029731
0.029218
0.029077
0.029155
0.029188
0.028851
0.027803
0.025713
0.022287
0.017316
0.010741
0.002728
-0.006288
-0.015625
-0.024435
-0.031831
-0.037032
-0.039500
-0.038898
-0.035125
-0.028686
-0.020295
-0.010761
-0.000878
0.008660
0.017304
0.024663
0.030530
0.467539
0.471098
0.481283
0.498495
0.523295
0.556027
0.595719
0.637498
0.668867
0.663088
0.602510
0.518886
0.355070
0.000000
-0.473105
-0.439130
-0.427964
-0.393129
-0.350677
-0.317261
-0.297531
-0.294551
-0.310403
-0.345695
-0.394220
-0.439889
-0.467519
-0.465999
-0.432250
-0.384268
-0.328074
-0.269016
-0.211447
-0.158537
-0.112324
-0.073925
-0.043823
-0.022083
-0.008315
-0.001427
0.000444
-0.000479
-0.002352
-0.003510
-0.003894
-0.003987
-0.004490
-0.006203
-0.010030
-0.016984
-0.028008
-0.043464
-0.062503
-0.082862
-0.101428
-0.115198
-0.122105
-0.120007
-0.110100
-0.094391
-0.075198
-0.054706
-0.034691
-0.016415
-0.000642
0.012266
0.022229
0.029353
0.033888
0.036221
0.036869
0.036417
0.035403
0.034255
0.033251
0.032335
0.031296
0.029833
0.027606
0.024277
0.019542
0.013189
0.005163
-0.004357
-0.014922
-0.025825
-0.036181
-0.045054
-0.051598
-0.055216
-0.055598
-0.052684
-0.047027
-0.039424
-0.030795
-0.022052
-0.014001
-0.007280
-0.002336
-0.000284
0.465478
0.468292
0.476264
0.489413
0.507553
0.529862
0.553918
0.574092
0.579501
0.552338
0.474806
0.336952
0.191254
-0.224554
-0.481859
-0.430842
-0.406149
-0.344340
-0.279881
-0.240793
-0.224629
-0.236819
-0.275916
-0.336839
-0.406766
-0.466555
-0.498872
-0.487095
-0.448947
-0.394834
-0.332497
-0.268010
-0.205902
-0.149244
-0.099844
-0.058536
-0.025527
-0.000720
0.016139
0.025632
0.028990
0.028093
0.024922
0.020913
0.017464
0.014117
0.010189
0.004849
-0.002905
-0.014174
-0.029842
-0.049961
-0.073194
-0.096815
-0.117386
-0.131715
-0.137683
-0.133075
-0.120151
-0.101302
-0.079157
-0.056105
-0.034019
-0.014166
0.002745
0.016442
0.026949
0.034460
0.039274
0.041786
0.042484
0.041925
0.040644
0.039053
0.037438
0.035804
0.033965
0.031630
0.028458
0.024102
0.018252
0.010698
0.001392
-0.009472
-0.021428
-0.033749
-0.045524
-0.055775
-0.063614
-0.068395
-0.069832
-0.067950
-0.063332
-0.056836
-0.049471
-0.042252
-0.036085
-0.031684
-0.029542
-0.031778
0.458262
0.460217
0.465670
0.474342
0.485562
0.497875
0.508365
0.511689
0.499009
0.457137
0.368823
0.210303
-0.068352
-0.640362
-0.532877
-0.425168
-0.368738
-0.304817
-0.242960
-0.195098
-0.183515
-0.206141
-0.257640
-0.329282
-0.405384
-0.466793
-0.491045
-0.474081
-0.433646
-0.378285
-0.315565
-0.251424
-0.190120
-0.134399
-0.085758
-0.044763
-0.011378
0.014708
0.033793
0.046125
0.052217
0.053174
0.050540
0.045622
0.040455
0.034845
0.028186
0.019668
0.008245
-0.007179
-0.027292
-0.051744
-0.078711
-0.105073
-0.127138
-0.141568
-0.146157
-0.139004
-0.123481
-0.102204
-0.078002
-0.053370
-0.030191
-0.009674
0.007571
0.021382
0.031884
0.039356
0.044148
0.046655
0.047333
0.046695
0.045247
0.043403
0.041412
0.039326
0.036966
0.034038
0.030193
0.025073
0.018362
0.009851
-0.000495
-0.012469
-0.025588
-0.039110
-0.052104
-0.063575
-0.072609
-0.078538
-0.081093
-0.080424
-0.077121
-0.072085
-0.066389
-0.061127
-0.057285
-0.055638
-0.056709
-0.063745
0.447446
0.448556
0.451567
0.456033
0.461048
0.464960
0.464933
0.456411
0.432583
0.383966
0.298052
0.158421
-0.055585
-0.326435
-0.372925
-0.348343
-0.311095
-0.264717
-0.217753
-0.184934
-0.179851
-0.205355
-0.257250
-0.324769
-0.391927
-0.440234
-0.449760
-0.431468
-0.392804
-0.341301
-0.283564
-0.224772
-0.168615
-0.117439
-0.072494
-0.034215
-0.002488
0.023097
0.042991
0.057487
0.066732
0.071078
0.071248
0.067887
0.062815
0.056135
0.047593
0.036539
0.021984
0.002956
-0.020931
-0.048883
-0.078651
-0.106820
-0.129560
-0.143568
-0.145772
-0.136658
-0.119345
-0.096688
-0.071617
-0.046618
-0.023490
-0.003317
0.013418
0.026669
0.036653
0.043714
0.048234
0.050605
0.051238
0.050583
0.049094
0.047157
0.045018
0.042727
0.040110
0.036865
0.032627
0.027024
0.019732
0.010544
-0.000565
-0.013374
-0.027386
-0.041847
-0.055820
-0.068306
-0.078395
-0.085420
-0.089134
-0.089827
-0.088092
-0.084855
-0.081229
-0.078363
-0.077294
-0.078835
-0.083526
-0.095856
0.434572
0.434933
0.435813
0.436710
0.436677
0.434142
0.426653
0.410626
0.381158
0.332055
0.256215
0.146995
0.003718
-0.151123
-0.228104
-0.249867
-0.243915
-0.224021
-0.201425
-0.187664
-0.191782
-0.216743
-0.259656
-0.311942
-0.360184
-0.386825
-0.389755
-0.372201
-0.338670
-0.294647
-0.245262
-0.194693
-0.146004
-0.101196
-0.061385
-0.027001
0.001995
0.025922
0.045214
0.060270
0.071377
0.078721
0.082278
0.083523
0.080708
0.074499
0.065333
0.052814
0.036122
0.014544
-0.011921
-0.042051
-0.073254
-0.101932
-0.124216
-0.136925
-0.136545
-0.126079
-0.107957
-0.085149
-0.060536
-0.036462
-0.014545
0.004304
0.019748
0.031846
0.040882
0.047234
0.051297
0.053444
0.054036
0.053449
0.052063
0.050214
0.048146
0.045876
0.043238
0.039926
0.035559
0.029746
0.022153
0.012570
0.000982
-0.012379
-0.027005
-0.042134
-0.056833
-0.070113
-0.081087
-0.089115
-0.093988
-0.096128
-0.096142
-0.094974
-0.093766
-0.093693
-0.095806
-0.100926
-0.109586
-0.127628
0.421002
0.420753
0.419911
0.417998
0.414150
0.407014
0.394637
0.374374
0.342924
0.296586
0.231944
0.147391
0.046594
-0.056233
-0.128062
-0.167247
-0.183191
-0.185408
-0.182816
-0.183676
-0.194131
-0.216477
-0.248644
-0.284288
-0.313750
-0.328668
-0.328229
-0.312900
-0.285416
-0.249487
-0.208858
-0.166760
-0.125681
-0.087338
-0.052755
-0.022398
0.003671
0.025660
0.043915
0.058816
0.070685
0.079701
0.086357
0.090545
0.090508
0.086389
0.078230
0.065737
0.048358
0.025745
-0.001686
-0.032330
-0.063353
-0.091065
-0.111640
-0.121992
-0.119715
-0.108460
-0.090563
-0.068849
-0.045964
-0.023986
-0.004282
0.012439
0.025980
0.036482
0.044265
0.049712
0.053202
0.055078
0.055648
0.055212
0.054070
0.052497
0.050701
0.048653
0.046201
0.043039
0.038773
0.032993
0.025352
0.015634
0.003828
-0.009825
-0.024806
-0.040353
-0.055538
-0.069395
-0.081068
-0.089963
-0.095934
-0.099514
-0.101346
-0.102410
-0.103870
-0.106897
-0.112517
-0.121510
-0.134375
-0.158381
0.407854
0.407134
0.404983
0.400988
0.394423
0.384207
0.368867
0.346554
0.315159
0.272627
0.217564
0.150289
0.074471
-0.001367
-0.063274
-0.106761
-0.134147
-0.150342
-0.160995
-0.171474
-0.185753
-0.205384
-0.229047
-0.252749
-0.270859
-0.279441
-0.277056
-0.263791
-0.241285
-0.212012
-0.178658
-0.143681
-0.109082
-0.076318
-0.046319
-0.019564
0.003816
0.023942
0.041078
0.055555
0.067680
0.077663
0.085998
0.091493
0.093488
0.091555
0.085236
0.074000
0.057392
0.035357
0.008666
-0.020792
-0.050037
-0.075409
-0.093301
-0.100555
-0.097082
-0.085938
-0.069329
-0.049794
-0.029633
-0.010591
0.006234
0.020322
0.031596
0.040252
0.046621
0.051072
0.053949
0.055549
0.056126
0.055908
0.055111
0.054002
0.052621
0.050956
0.048858
0.046020
0.042039
0.036490
0.029008
0.019371
0.007565
-0.006161
-0.021283
-0.037036
-0.052500
-0.066731
-0.078912
-0.088482
-0.095416
-0.100317
-0.103907
-0.107230
-0.111478
-0.117793
-0.127119
-0.140131
-0.157260
-0.187204
0.395988
0.394920
0.391819
0.386352
0.377950
0.365788
0.348801
0.325742
0.295321
0.256475
0.208805
0.153196
0.092524
0.031983
-0.021612
-0.064628
-0.096996
-0.120858
-0.139363
-0.155722
-0.172373
-0.190302
-0.208759
-0.225457
-0.237396
-0.242185
-0.238658
-0.226865
-0.207876
-0.183410
-0.155436
-0.125850
-0.096267
-0.067919
-0.041634
-0.017871
0.003212
0.021679
0.037741
0.051675
0.063767
0.074256
0.083017
0.089362
0.092717
0.092472
0.087953
0.078483
0.063597
0.043378
0.018796
-0.008106
-0.034326
-0.056346
-0.070892
-0.075324
-0.071727
-0.061633
-0.047132
-0.030434
-0.013481
0.002295
0.016023
0.027338
0.036251
0.043001
0.047930
0.051384
0.053670
0.055031
0.055661
0.055717
0.055343
0.054779
0.053904
0.052729
0.051099
0.048705
0.045137
0.039957
0.032785
0.023385
0.011741
-0.001897
-0.016998
-0.032794
-0.048368
-0.062795
-0.075294
-0.085264
-0.092955
-0.098951
-0.104106
-0.109573
-0.116585
-0.126230
-0.139303
-0.156293
-0.177499
-0.212930
0.386040
0.384716
0.380939
0.374470
0.364880
0.351556
0.333746
0.310625
0.281430
0.245662
0.203377
0.155529
0.104262
0.052889
0.005261
-0.036013
-0.070156
-0.097881
-0.120765
-0.140597
-0.158790
-0.175933
-0.191603
-0.204508
-0.213029
-0.215532
-0.211325
-0.200495
-0.183835
-0.162631
-0.138405
-0.112670
-0.086763
-0.061734
-0.038313
-0.016921
0.002284
0.019347
0.034443
0.047815
0.059698
0.070297
0.079268
0.086213
0.090577
0.091680
0.088768
0.081128
0.068319
0.050500
0.028722
0.005048
-0.017634
-0.036103
-0.047537
-0.050937
-0.047716
-0.039119
-0.026950
-0.013098
0.000796
0.013530
0.024398
0.033140
0.039837
0.044780
0.048338
0.050860
0.052621
0.053814
0.054562
0.054943
0.055098
0.055000
0.054648
0.054003
0.052888
0.050991
0.047895
0.043153
0.036371
0.027300
0.015915
0.002465
-0.012512
-0.028239
-0.043793
-0.058244
-0.070836
-0.080957
-0.089111
-0.095885
-0.102304
-0.109661
-0.119252
-0.132097
-0.148774
-0.169484
-0.194294
-0.234145
0.378483
0.376939
0.372667
0.365528
0.355199
0.341221
0.323057
0.300159
0.272082
0.238632
0.200057
0.157238
0.111799
0.066013
0.022371
-0.017195
-0.051747
-0.081300
-0.106527
-0.128349
-0.147535
-0.164399
-0.178668
-0.189574
-0.196136
-0.197314
-0.192719
-0.182500
-0.167324
-0.148243
-0.126510
-0.103398
-0.080052
-0.057391
-0.036065
-0.016456
0.001294
0.017230
0.031518
0.044384
0.056048
0.066606
0.075764
0.083214
0.088421
0.090674
0.089181
0.083218
0.072378
0.056872
0.037782
0.017107
-0.002479
-0.018182
-0.027806
-0.030991
-0.028385
-0.021172
-0.010951
0.000618
0.012094
0.022425
0.031005
0.037642
0.042474
0.045848
0.048186
0.049873
0.051189
0.052290
0.053231
0.053984
0.054548
0.054911
0.055061
0.054919
0.054293
0.052868
0.050228
0.045918
0.039534
0.030811
0.019714
0.006489
-0.008319
-0.023916
-0.039355
-0.053681
-0.066105
-0.076211
-0.084524
-0.091750
-0.099072
-0.107933
-0.119712
-0.135374
-0.155265
-0.179213
-0.206923
-0.249394
0.373721
0.371860
0.367173
0.359587
0.348824
0.334508
0.316228
0.293599
0.266352
0.234447
0.198203
0.158414
0.116387
0.073842
0.032626
-0.005712
-0.040217
-0.070581
-0.096996
-0.119894
-0.139671
-0.156467
-0.170064
-0.179930
-0.185410
-0.185866
-0.181074
-0.171236
-0.156963
-0.139180
-0.118990
-0.097520
-0.075798
-0.054658
-0.034698
-0.016271
0.000491
0.015632
0.029314
0.041762
0.053219
0.063731
0.073079
0.080981
0.086895
0.090083
0.089716
0.085047
0.075679
0.061855
0.044668
0.026058
0.008499
-0.005539
-0.014361
-0.017496
-0.015385
-0.009136
-0.000216
0.009859
0.019765
0.028537
0.035619
0.040853
0.044401
0.046641
0.048038
0.049031
0.049945
0.050970
0.052081
0.053102
0.054031
0.054813
0.055394
0.055670
0.055443
0.054401
0.052132
0.048180
0.042130
0.033703
0.022851
0.009819
-0.004838
-0.020301
-0.035591
-0.049716
-0.061827
-0.071854
-0.080207
-0.087685
-0.095571
-0.105414
-0.118681
-0.136350
-0.158627
-0.185038
-0.214904
-0.257850
0.372354
0.369575
0.364487
0.356639
0.345671
0.331223
0.312937
0.290501
0.263721
0.232617
0.197526
0.159184
0.118746
0.077693
0.037608
-0.000125
-0.034555
-0.065242
-0.092171
-0.115557
-0.135624
-0.152428
-0.165774
-0.175264
-0.180330
-0.180505
-0.175670
-0.166053
-0.152239
-0.135093
-0.115644
-0.094947
-0.073973
-0.053516
-0.034151
-0.016221
0.000140
0.014968
0.028408
0.040657
0.051869
0.062222
0.071730
0.080006
0.086454
0.090286
0.090618
0.086662
0.078004
0.064902
0.048486
0.030706
0.013962
0.000462
-0.008224
-0.011398
-0.009574
-0.003819
0.004477
0.013874
0.023111
0.031256
0.037771
0.042497
0.045591
0.047419
0.048448
0.049124
0.049778
0.050557
0.051516
0.052704
0.053898
0.054975
0.055849
0.056404
0.056441
0.055651
0.053624
0.049898
0.044047
0.035778
0.025031
0.012050
-0.002593
-0.018043
-0.033283
-0.047337
-0.059541
-0.069654
-0.078113
-0.085785
-0.093965
-0.104201
-0.117976
-0.136307
-0.159444
-0.186917
-0.218047
-0.260873
