# vtk DataFile Version 3.0
Vector Field
ASCII
DATASET RECTILINEAR_GRID
DIMENSIONS 100 26 1
X_COORDINATES 100 double
0.050000 0.150000 0.250000 0.350000 0.450000 0.550000 0.650000 0.750000 0.850000 0.950000 1.050000 1.150000 1.250000 1.350000 1.450000 1.550000 1.650000 1.750000 1.850000 1.950000 2.050000 2.150000 2.250000 2.350000 2.450000 2.550000 2.650000 2.750000 2.850000 2.950000 3.050000 3.150000 3.250000 3.350000 3.450000 3.550000 3.650000 3.750000 3.850000 3.950000 4.050000 4.150000 4.250000 4.350000 4.450000 4.550000 4.650000 4.750000 4.850000 4.950000 5.050000 5.150000 5.250000 5.350000 5.450000 5.550000 5.650000 5.750000 5.850000 5.950000 6.050000 6.150000 6.250000 6.350000 6.450000 6.550000 6.650000 6.750000 6.850000 6.950000 7.050000 7.150000 7.250000 7.350000 7.450000 7.550000 7.650000 7.750000 7.850000 7.950000 8.050000 8.150000 8.250000 8.350000 8.450000 8.550000 8.650000 8.750000 8.850000 8.950000 9.050000 9.150000 9.250000 9.350000 9.450000 9.550000 9.650000 9.750000 9.850000 9.950000 
Y_COORDINATES 26 double
0.050000 0.150000 0.250000 0.350000 0.450000 0.550000 0.650000 0.750000 0.850000 0.950000 1.050000 1.150000 1.250000 1.350000 1.450000 1.550000 1.650000 1.750000 1.850000 1.950000 2.050000 2.150000 2.250000 2.350000 2.450000 2.550000 
Z_COORDINATES 1 double
0.0
POINT_DATA 2600
VECTORS Vektorfeld double
1.000881 -0.000881 0.0
1.004902 -0.003140 0.0
1.013632 -0.005590 0.0
1.027330 -0.008108 0.0
1.046028 -0.010590 0.0
1.069521 -0.012904 0.0
1.097300 -0.014875 0.0
1.128467 -0.016293 0.0
1.161714 -0.016954 0.0
1.195388 -0.016719 0.0
1.227687 -0.015579 0.0
1.256916 -0.013650 0.0
1.281684 -0.011117 0.0
1.300974 -0.008173 0.0
1.314141 -0.004994 0.0
1.320879 -0.001743 0.0
1.321198 0.001424 0.0
1.315389 0.004385 0.0
1.303987 0.007017 0.0
1.287765 0.009205 0.0
1.267706 0.010854 0.0
1.244962 0.011889 0.0
1.220812 0.012260 0.0
1.196610 0.011942 0.0
1.173732 0.010935 0.0
1.153531 0.009266 0.0
1.137278 0.006986 0.0
1.126125 0.004166 0.0
1.121063 0.000895 0.0
1.122775 -0.002607 0.0
1.131384 -0.006002 0.0
1.146305 -0.008918 0.0
1.166172 -0.010949 0.0
1.188849 -0.011728 0.0
1.211622 -0.011045 0.0
1.231602 -0.008935 0.0
1.246245 -0.005708 0.0
1.253813 -0.001861 0.0
1.253491 0.002183 0.0
1.245171 0.006138 0.0
1.229271 0.009762 0.0
1.206618 0.012891 0.0
1.178295 0.015432 0.0
1.145512 0.017350 0.0
1.109517 0.018645 0.0
1.071536 0.019336 0.0
1.032752 0.019448 0.0
0.994304 0.019001 0.0
0.957297 0.018006 0.0
0.922835 0.016457 0.0
0.892042 0.014336 0.0
0.866081 0.011624 0.0
0.846128 0.008330 0.0
0.833262 0.004536 0.0
0.828237 0.000489 0.0
0.831098 -0.003350 0.0
0.841285 -0.006836 0.0
0.858133 -0.010012 0.0
0.881095 -0.012950 0.0
0.909750 -0.015705 0.0
0.943736 -0.018280 0.0
0.982613 -0.020597 0.0
1.025671 -0.022461 0.0
1.071702 -0.023570 0.0
1.118818 -0.023546 0.0
1.164372 -0.022007 0.0
1.205061 -0.018682 0.0
1.237322 -0.013579 0.0
1.258064 -0.007163 0.0
1.265548 -0.000321 0.0
1.259597 0.006272 0.0
1.240982 0.012343 0.0
1.211024 0.017615 0.0
1.171584 0.021824 0.0
1.125011 0.024749 0.0
1.074037 0.026226 0.0
1.021663 0.026148 0.0
0.971023 0.024492 0.0
0.925175 0.021357 0.0
0.886805 0.017012 0.0
0.857881 0.011912 0.0
0.839335 0.006634 0.0
0.830900 0.001801 0.0
0.831066 -0.001966 0.0
0.837571 -0.004539 0.0
0.848331 -0.006221 0.0
0.861855 -0.007302 0.0
0.877166 -0.008009 0.0
0.893683 -0.008508 0.0
0.911103 -0.008912 0.0
0.929286 -0.009271 0.0
0.948133 -0.009576 0.0
0.967463 -0.009754 0.0
0.986904 -0.009687 0.0
1.005821 -0.009230 0.0
1.023315 -0.008264 0.0
1.038345 -0.006765 0.0
1.050016 -0.004906 0.0
1.057997 -0.003075 0.0
1.064829 -0.003758 0.0
1.001430 -0.003192 0.0
1.006859 -0.010278 0.0
1.017413 -0.017737 0.0
1.033114 -0.025360 0.0
1.053975 -0.032896 0.0
1.079850 -0.039966 0.0
1.110293 -0.046035 0.0
1.144438 -0.050444 0.0
1.180917 -0.052529 0.0
1.217904 -0.051806 0.0
1.253367 -0.048255 0.0
1.285451 -0.042289 0.0
1.312722 -0.034517 0.0
1.334205 -0.025546 0.0
1.349324 -0.015908 0.0
1.357822 -0.006065 0.0
1.359687 0.003561 0.0
1.355180 0.012564 0.0
1.344857 0.020564 0.0
1.329520 0.027217 0.0
1.310194 0.032228 0.0
1.288080 0.035373 0.0
1.264507 0.036499 0.0
1.240879 0.035534 0.0
1.218619 0.032480 0.0
1.199122 0.027420 0.0
1.183694 0.020513 0.0
1.173482 0.012004 0.0
1.169355 0.002246 0.0
1.171884 -0.008198 0.0
1.181363 -0.018499 0.0
1.197581 -0.027560 0.0
1.219495 -0.034088 0.0
1.245093 -0.036865 0.0
1.271553 -0.035141 0.0
1.295693 -0.028959 0.0
1.314581 -0.019214 0.0
1.326015 -0.007357 0.0
1.328809 0.005207 0.0
1.322825 0.017418 0.0
1.308684 0.028522 0.0
1.287431 0.038037 0.0
1.260329 0.045712 0.0
1.228715 0.051466 0.0
1.193920 0.055320 0.0
1.157214 0.057348 0.0
1.119800 0.057634 0.0
1.082816 0.056248 0.0
1.047345 0.053236 0.0
1.014419 0.048615 0.0
0.984983 0.042406 0.0
0.959820 0.034678 0.0
0.939437 0.025613 0.0
0.923995 0.015560 0.0
0.913439 0.005046 0.0
0.907939 -0.005268 0.0
0.907890 -0.015056 0.0
0.913552 -0.024303 0.0
0.925013 -0.033083 0.0
0.942286 -0.041500 0.0
0.965403 -0.049588 0.0
0.994389 -0.057153 0.0
1.029089 -0.063663 0.0
1.068934 -0.068244 0.0
1.112738 -0.069793 0.0
1.158602 -0.067177 0.0
1.203912 -0.059510 0.0
1.245412 -0.046513 0.0
1.279346 -0.028905 0.0
1.301878 -0.008594 0.0
1.310544 0.011830 0.0
1.305305 0.030638 0.0
1.287635 0.046949 0.0
1.259578 0.059986 0.0
1.223600 0.069138 0.0
1.182437 0.073974 0.0
1.138938 0.074272 0.0
1.095872 0.070073 0.0
1.055708 0.061789 0.0
1.020352 0.050306 0.0
0.990926 0.036969 0.0
0.967694 0.023355 0.0
0.950287 0.010922 0.0
0.938294 0.000739 0.0
0.931391 -0.006846 0.0
0.928885 -0.012169 0.0
0.929834 -0.015827 0.0
0.933419 -0.018380 0.0
0.939071 -0.020305 0.0
0.946497 -0.021961 0.0
0.955642 -0.023551 0.0
0.966597 -0.025098 0.0
0.979475 -0.026440 0.0
0.994288 -0.027255 0.0
1.010842 -0.027132 0.0
1.028676 -0.025691 0.0
1.047052 -0.022745 0.0
1.064993 -0.018538 0.0
1.081409 -0.013838 0.0
1.094682 -0.013100 0.0
1.001319 -0.005942 0.0
1.006577 -0.018215 0.0
1.017127 -0.030904 0.0
1.033119 -0.043886 0.0
1.054729 -0.056841 0.0
1.082012 -0.069178 0.0
1.114717 -0.079972 0.0
1.152057 -0.087991 0.0
1.192524 -0.091928 0.0
1.233797 -0.090667 0.0
1.273165 -0.084224 0.0
1.308315 -0.073554 0.0
1.337690 -0.059897 0.0
1.360395 -0.044355 0.0
1.375979 -0.027802 0.0
1.384285 -0.010974 0.0
1.385429 0.005461 0.0
1.379780 0.020819 0.0
1.367947 0.034466 0.0
1.350785 0.045813 0.0
1.329383 0.054359 0.0
1.305016 0.059723 0.0
1.279081 0.061657 0.0
1.253043 0.060043 0.0
1.228376 0.054896 0.0
1.206522 0.046356 0.0
1.188844 0.034685 0.0
1.176609 0.020280 0.0
1.171001 0.003705 0.0
1.173068 -0.014254 0.0
1.183509 -0.032364 0.0
1.202321 -0.048727 0.0
1.228425 -0.060939 0.0
1.259445 -0.066633 0.0
1.291858 -0.064245 0.0
1.321545 -0.053682 0.0
1.344694 -0.036528 0.0
1.358763 -0.015545 0.0
1.362932 0.006431 0.0
1.357630 0.027480 0.0
1.343862 0.046369 0.0
1.322937 0.062368 0.0
1.296278 0.075143 0.0
1.265292 0.084635 0.0
1.231294 0.090945 0.0
1.195479 0.094244 0.0
1.158920 0.094710 0.0
1.122580 0.092496 0.0
1.087315 0.087723 0.0
1.053869 0.080500 0.0
1.022854 0.070973 0.0
0.994747 0.059381 0.0
0.969934 0.046105 0.0
0.948795 0.031650 0.0
0.931742 0.016563 0.0
0.919151 0.001305 0.0
0.911246 -0.013675 0.0
0.908067 -0.028167 0.0
0.909621 -0.042233 0.0
0.916151 -0.056152 0.0
0.928246 -0.070148 0.0
0.946671 -0.084004 0.0
0.971986 -0.096827 0.0
1.004181 -0.107120 0.0
1.042501 -0.113042 0.0
1.085448 -0.112739 0.0
1.130873 -0.104683 0.0
1.176076 -0.088043 0.0
1.217868 -0.063100 0.0
1.252635 -0.031699 0.0
1.276570 0.002333 0.0
1.287468 0.034476 0.0
1.285652 0.062597 0.0
1.272675 0.085373 0.0
1.250578 0.101827 0.0
1.221678 0.111348 0.0
1.188355 0.113720 0.0
1.152854 0.109192 0.0
1.117102 0.098586 0.0
1.082612 0.083354 0.0
1.050501 0.065458 0.0
1.021591 0.047007 0.0
0.996487 0.029780 0.0
0.975497 0.014864 0.0
0.958622 0.002808 0.0
0.945608 -0.006304 0.0
0.935872 -0.012903 0.0
0.928719 -0.017736 0.0
0.923710 -0.021593 0.0
0.920756 -0.025145 0.0
0.920076 -0.028831 0.0
0.922063 -0.032760 0.0
0.927107 -0.036700 0.0
0.935425 -0.040126 0.0
0.946954 -0.042344 0.0
0.961311 -0.042669 0.0
0.977803 -0.040636 0.0
0.995451 -0.036236 0.0
1.012993 -0.030099 0.0
1.027893 -0.025012 0.0
1.001271 -0.008532 0.0
1.006416 -0.026028 0.0
1.016918 -0.044144 0.0
1.033153 -0.062874 0.0
1.055603 -0.081913 0.0
1.084719 -0.100505 0.0
1.120667 -0.117297 0.0
1.162917 -0.130255 0.0
1.209892 -0.137107 0.0
1.258284 -0.135154 0.0
1.303866 -0.124686 0.0
1.343531 -0.107906 0.0
1.375738 -0.087127 0.0
1.399946 -0.064037 0.0
1.416002 -0.039760 0.0
1.423890 -0.015212 0.0
1.423793 0.008652 0.0
1.416121 0.030949 0.0
1.401518 0.050772 0.0
1.380941 0.067246 0.0
1.355632 0.079637 0.0
1.327040 0.087405 0.0
1.296738 0.090212 0.0
1.266356 0.087909 0.0
1.237527 0.080527 0.0
1.211838 0.068268 0.0
1.190796 0.051492 0.0
1.175818 0.030686 0.0
1.168279 0.006448 0.0
1.169510 -0.020294 0.0
1.180553 -0.047807 0.0
1.201690 -0.073233 0.0
1.231961 -0.092808 0.0
1.268938 -0.102760 0.0
1.308792 -0.100385 0.0
1.346625 -0.085062 0.0
1.377245 -0.058918 0.0
1.396583 -0.026562 0.0
1.403126 0.006736 0.0
1.397770 0.037832 0.0
1.382421 0.065134 0.0
1.359150 0.087800 0.0
1.329950 0.105570 0.0
1.296585 0.118559 0.0
1.260534 0.127070 0.0
1.223007 0.131462 0.0
1.184984 0.132075 0.0
1.147257 0.129199 0.0
1.110466 0.123075 0.0
1.075129 0.113931 0.0
1.041670 0.102016 0.0
1.010473 0.087642 0.0
0.981927 0.071203 0.0
0.956422 0.053197 0.0
0.934239 0.034252 0.0
0.915384 0.015063 0.0
0.899612 -0.003756 0.0
0.886754 -0.022050 0.0
0.877149 -0.040299 0.0
0.871893 -0.059359 0.0
0.872686 -0.079829 0.0
0.881215 -0.101278 0.0
0.898444 -0.122095 0.0
0.924296 -0.139899 0.0
0.957792 -0.152079 0.0
0.997344 -0.156201 0.0
1.040999 -0.150301 0.0
1.086545 -0.133176 0.0
1.131524 -0.104738 0.0
1.173148 -0.066452 0.0
1.208129 -0.021831 0.0
1.232845 0.023027 0.0
1.245572 0.063136 0.0
1.246982 0.096401 0.0
1.238470 0.121407 0.0
1.221789 0.137349 0.0
1.198807 0.144023 0.0
1.171328 0.141869 0.0
1.140979 0.132010 0.0
1.109189 0.116209 0.0
1.077240 0.096663 0.0
1.046301 0.075651 0.0
1.017359 0.055182 0.0
0.991051 0.036761 0.0
0.967524 0.021313 0.0
0.946515 0.009213 0.0
0.927624 0.000208 0.0
0.910538 -0.006609 0.0
0.895282 -0.012456 0.0
0.882364 -0.018411 0.0
0.872585 -0.025107 0.0
0.866729 -0.032615 0.0
0.865324 -0.040484 0.0
0.868510 -0.047847 0.0
0.876015 -0.053657 0.0
0.887232 -0.056928 0.0
0.901299 -0.056937 0.0
0.917127 -0.053410 0.0
0.933353 -0.046693 0.0
0.947592 -0.037557 0.0
1.001201 -0.011003 0.0
1.006111 -0.033612 0.0
1.016289 -0.057240 0.0
1.032391 -0.082114 0.0
1.055352 -0.108084 0.0
1.086273 -0.134371 0.0
1.126127 -0.159233 0.0
1.175061 -0.179504 0.0
1.231976 -0.191748 0.0
1.291431 -0.188360 0.0
1.345617 -0.171249 0.0
1.390407 -0.145799 0.0
1.425106 -0.116140 0.0
1.450309 -0.084435 0.0
1.466521 -0.051631 0.0
1.473818 -0.018525 0.0
1.472238 0.013643 0.0
1.462043 0.043825 0.0
1.443838 0.070706 0.0
1.418702 0.093025 0.0
1.388100 0.109769 0.0
1.353733 0.120232 0.0
1.317426 0.123995 0.0
1.281040 0.120894 0.0
1.246418 0.110992 0.0
1.215340 0.094570 0.0
1.189458 0.072114 0.0
1.170230 0.044270 0.0
1.158924 0.011710 0.0
1.156785 -0.024648 0.0
1.164945 -0.062656 0.0
1.183897 -0.098472 0.0
1.213067 -0.127011 0.0
1.250823 -0.143289 0.0
1.294507 -0.143394 0.0
1.340028 -0.125406 0.0
1.381534 -0.090699 0.0
1.412305 -0.044890 0.0
1.427514 0.003312 0.0
1.426896 0.047231 0.0
1.413248 0.084733 0.0
1.389681 0.115039 0.0
1.359015 0.138196 0.0
1.323601 0.154712 0.0
1.285290 0.165278 0.0
1.245486 0.170584 0.0
1.205230 0.171232 0.0
1.165285 0.167715 0.0
1.126206 0.160430 0.0
1.088407 0.149712 0.0
1.052226 0.135874 0.0
1.017970 0.119236 0.0
0.985918 0.100206 0.0
0.956211 0.079406 0.0
0.928684 0.057755 0.0
0.902825 0.036275 0.0
0.878096 0.015533 0.0
0.854591 -0.004976 0.0
0.833727 -0.026904 0.0
0.818220 -0.051992 0.0
0.811012 -0.080780 0.0
0.813946 -0.111789 0.0
0.827214 -0.142081 0.0
0.849762 -0.168314 0.0
0.879990 -0.187388 0.0
0.916208 -0.196662 0.0
0.956762 -0.194049 0.0
0.999998 -0.178210 0.0
1.044167 -0.148851 0.0
1.087324 -0.107119 0.0
1.127179 -0.056000 0.0
1.160598 -0.000939 0.0
1.184537 0.050437 0.0
1.197956 0.094270 0.0
1.201431 0.128575 0.0
1.196033 0.152260 0.0
1.183078 0.165049 0.0
1.163951 0.167450 0.0
1.140018 0.160713 0.0
1.112603 0.146711 0.0
1.082997 0.127715 0.0
1.052414 0.106120 0.0
1.021869 0.084199 0.0
0.992023 0.063898 0.0
0.963120 0.046606 0.0
0.935139 0.032910 0.0
0.908118 0.022423 0.0
0.882470 0.013911 0.0
0.859028 0.005723 0.0
0.838891 -0.003535 0.0
0.823211 -0.014523 0.0
0.812846 -0.026977 0.0
0.808065 -0.039937 0.0
0.808570 -0.052085 0.0
0.813701 -0.062055 0.0
0.822614 -0.068661 0.0
0.834370 -0.071027 0.0
0.847906 -0.068684 0.0
0.861959 -0.061697 0.0
0.874620 -0.049453 0.0
1.001063 -0.013267 0.0
1.005447 -0.040642 0.0
1.014702 -0.069642 0.0
1.029783 -0.100896 0.0
1.052189 -0.134669 0.0
1.083965 -0.170484 0.0
1.127513 -0.206522 0.0
1.184537 -0.238172 0.0
1.256479 -0.261937 0.0
1.332375 -0.253521 0.0
1.395674 -0.223572 0.0
1.442672 -0.185265 0.0
1.476300 -0.145000 0.0
1.499994 -0.104472 0.0
1.515441 -0.063254 0.0
1.522392 -0.021150 0.0
1.519916 0.020324 0.0
1.507565 0.059689 0.0
1.485717 0.094896 0.0
1.455584 0.124103 0.0
1.418927 0.145950 0.0
1.377779 0.159566 0.0
1.334261 0.164485 0.0
1.290495 0.160556 0.0
1.248556 0.147890 0.0
1.210434 0.126872 0.0
1.177931 0.098198 0.0
1.152422 0.062923 0.0
1.134505 0.022280 0.0
1.124220 -0.022795 0.0
1.122001 -0.070450 0.0
1.128596 -0.116226 0.0
1.144550 -0.154382 0.0
1.170568 -0.179692 0.0
1.207212 -0.187319 0.0
1.253385 -0.173175 0.0
1.304771 -0.135823 0.0
1.353243 -0.079009 0.0
1.388515 -0.013051 0.0
1.404605 0.048122 0.0
1.402997 0.099097 0.0
1.387894 0.139345 0.0
1.362986 0.169464 0.0
1.331270 0.190574 0.0
1.295085 0.203913 0.0
1.256209 0.210629 0.0
1.215966 0.211686 0.0
1.175318 0.207853 0.0
1.134958 0.199730 0.0
1.095384 0.187784 0.0
1.056971 0.172397 0.0
1.019991 0.153949 0.0
0.984538 0.132999 0.0
0.950336 0.110522 0.0
0.916627 0.087875 0.0
0.882492 0.066149 0.0
0.847804 0.045075 0.0
0.814281 0.022509 0.0
0.785425 -0.004668 0.0
0.765203 -0.038501 0.0
0.756280 -0.078140 0.0
0.758938 -0.120022 0.0
0.771674 -0.159851 0.0
0.792471 -0.193889 0.0
0.819580 -0.219150 0.0
0.851662 -0.233200 0.0
0.887649 -0.234053 0.0
0.926530 -0.220324 0.0
0.967199 -0.191574 0.0
1.008354 -0.148708 0.0
1.048410 -0.094322 0.0
1.085309 -0.032934 0.0
1.115897 0.027905 0.0
1.137790 0.081489 0.0
1.150608 0.125064 0.0
1.154668 0.157110 0.0
1.150680 0.177142 0.0
1.139570 0.185593 0.0
1.122378 0.183695 0.0
1.100208 0.173314 0.0
1.074177 0.156749 0.0
1.045320 0.136527 0.0
1.014458 0.115200 0.0
0.982131 0.095071 0.0
0.948699 0.077768 0.0
0.914648 0.063780 0.0
0.880927 0.052295 0.0
0.849038 0.041576 0.0
0.820767 0.029772 0.0
0.797643 0.015677 0.0
0.780449 -0.000862 0.0
0.769227 -0.019052 0.0
0.763595 -0.037449 0.0
0.762912 -0.054394 0.0
0.766399 -0.068363 0.0
0.773246 -0.078113 0.0
0.782629 -0.082714 0.0
0.793660 -0.081565 0.0
0.805291 -0.074500 0.0
0.816104 -0.060124 0.0
1.000814 -0.015144 0.0
1.004214 -0.046550 0.0
1.011571 -0.080346 0.0
1.024066 -0.117770 0.0
1.043736 -0.159870 0.0
1.073778 -0.207100 0.0
1.118812 -0.258487 0.0
1.183799 -0.308219 0.0
1.278417 -0.358451 0.0
1.375964 -0.330450 0.0
1.440604 -0.274581 0.0
1.477833 -0.218482 0.0
1.500305 -0.167882 0.0
1.516338 -0.121317 0.0
1.529218 -0.074737 0.0
1.537365 -0.024765 0.0
1.536826 0.026955 0.0
1.525015 0.077219 0.0
1.501740 0.122488 0.0
1.468363 0.160022 0.0
1.426991 0.188060 0.0
1.379973 0.205621 0.0
1.329673 0.212248 0.0
1.278400 0.207833 0.0
1.228399 0.192553 0.0
1.181823 0.166906 0.0
1.140631 0.131860 0.0
1.106183 0.089218 0.0
1.078170 0.041914 0.0
1.053584 -0.007559 0.0
1.030015 -0.059898 0.0
1.009282 -0.112640 0.0
0.996316 -0.160955 0.0
0.997330 -0.200151 0.0
1.017207 -0.223381 0.0
1.056861 -0.222942 0.0
1.112888 -0.193469 0.0
1.178034 -0.134979 0.0
1.241169 -0.055489 0.0
1.288527 0.027113 0.0
1.314159 0.096082 0.0
1.321603 0.150018 0.0
1.315044 0.190257 0.0
1.297894 0.218646 0.0
1.272895 0.237025 0.0
1.242255 0.247033 0.0
1.207742 0.250039 0.0
1.170749 0.247141 0.0
1.132355 0.239198 0.0
1.093374 0.226871 0.0
1.054394 0.210702 0.0
1.015736 0.191281 0.0
0.977278 0.169578 0.0
0.938265 0.147158 0.0
0.897524 0.125688 0.0
0.854550 0.105445 0.0
0.811044 0.083973 0.0
0.771379 0.056799 0.0
0.740878 0.020400 0.0
0.722901 -0.025370 0.0
0.717527 -0.076973 0.0
0.722654 -0.128974 0.0
0.735689 -0.176669 0.0
0.754556 -0.216735 0.0
0.777906 -0.246761 0.0
0.804964 -0.264729 0.0
0.835275 -0.268822 0.0
0.868444 -0.257605 0.0
0.903933 -0.230451 0.0
0.940957 -0.188009 0.0
0.978423 -0.132544 0.0
1.014881 -0.068070 0.0
1.048057 -0.000724 0.0
1.075157 0.061124 0.0
1.094537 0.113230 0.0
1.105876 0.153544 0.0
1.109319 0.181252 0.0
1.105323 0.196590 0.0
1.094548 0.200665 0.0
1.077783 0.195279 0.0
1.055852 0.182746 0.0
1.029513 0.165727 0.0
0.999381 0.146992 0.0
0.966000 0.128987 0.0
0.930082 0.113203 0.0
0.892822 0.099656 0.0
0.856027 0.086936 0.0
0.821872 0.072977 0.0
0.792365 0.056148 0.0
0.768815 0.035975 0.0
0.751640 0.013211 0.0
0.740447 -0.010710 0.0
0.734424 -0.034136 0.0
0.732749 -0.055350 0.0
0.734683 -0.072828 0.0
0.739531 -0.085343 0.0
0.746617 -0.091953 0.0
0.755231 -0.091970 0.0
0.764560 -0.085055 0.0
0.773579 -0.069401 0.0
1.000426 -0.016384 0.0
1.002253 -0.050536 0.0
1.006413 -0.087876 0.0
1.014068 -0.130391 0.0
1.027459 -0.180310 0.0
1.050692 -0.239935 0.0
1.091056 -0.311050 0.0
1.159474 -0.389061 0.0
1.285596 -0.498349 0.0
1.402003 -0.404506 0.0
1.439536 -0.302699 0.0
1.440627 -0.228685 0.0
1.434123 -0.173648 0.0
1.431879 -0.129340 0.0
1.438752 -0.086467 0.0
1.452145 -0.034575 0.0
1.461276 0.028173 0.0
1.457565 0.091523 0.0
1.440012 0.149011 0.0
1.410140 0.196747 0.0
1.370237 0.232611 0.0
1.322722 0.255604 0.0
1.269930 0.265356 0.0
1.214093 0.261835 0.0
1.157357 0.245290 0.0
1.101758 0.216344 0.0
1.049159 0.176213 0.0
1.000911 0.127561 0.0
0.956263 0.076233 0.0
0.909961 0.029010 0.0
0.854226 -0.017163 0.0
0.793866 -0.074283 0.0
0.748829 -0.141308 0.0
0.733927 -0.205910 0.0
0.750383 -0.253955 0.0
0.792617 -0.274257 0.0
0.854249 -0.259814 0.0
0.929371 -0.208901 0.0
1.011322 -0.126654 0.0
1.089623 -0.027380 0.0
1.150631 0.063935 0.0
1.189633 0.135719 0.0
1.210676 0.190073 0.0
1.217076 0.229580 0.0
1.211585 0.256581 0.0
1.196591 0.273110 0.0
1.174186 0.280880 0.0
1.146171 0.281307 0.0
1.114055 0.275541 0.0
1.079049 0.264515 0.0
1.042016 0.249072 0.0
1.003321 0.230265 0.0
0.962618 0.209755 0.0
0.918943 0.189669 0.0
0.871695 0.171166 0.0
0.822348 0.152289 0.0
0.775362 0.127621 0.0
0.736719 0.091461 0.0
0.710822 0.042136 0.0
0.698497 -0.016805 0.0
0.697536 -0.079203 0.0
0.704763 -0.139098 0.0
0.717556 -0.192374 0.0
0.734165 -0.236506 0.0
0.753589 -0.269765 0.0
0.775424 -0.290618 0.0
0.799664 -0.297483 0.0
0.826443 -0.288891 0.0
0.855770 -0.263982 0.0
0.887348 -0.223080 0.0
0.920511 -0.168103 0.0
0.954220 -0.102678 0.0
0.986952 -0.032024 0.0
1.016138 0.036140 0.0
1.039441 0.095532 0.0
1.055876 0.143469 0.0
1.065044 0.178716 0.0
1.066945 0.201222 0.0
1.061845 0.211908 0.0
1.050176 0.212470 0.0
1.032439 0.205221 0.0
1.009134 0.192896 0.0
0.980778 0.178310 0.0
0.948079 0.163749 0.0
0.912196 0.150242 0.0
0.874907 0.137166 0.0
0.838472 0.122656 0.0
0.805167 0.104716 0.0
0.776739 0.082344 0.0
0.754092 0.055975 0.0
0.737331 0.027148 0.0
0.726018 -0.002142 0.0
0.719417 -0.030080 0.0
0.716742 -0.055057 0.0
0.717298 -0.075611 0.0
0.720448 -0.090558 0.0
0.725592 -0.098968 0.0
0.732142 -0.100119 0.0
0.739484 -0.093577 0.0
0.746910 -0.077324 0.0
0.999901 -0.016711 0.0
0.999565 -0.051700 0.0
0.999164 -0.090470 0.0
0.999402 -0.135690 0.0
1.001903 -0.190903 0.0
1.010371 -0.261043 0.0
1.033292 -0.353229 0.0
1.089069 -0.471077 0.0
1.243355 -0.696742 0.0
1.347622 -0.426786 0.0
1.297339 -0.267669 0.0
1.226778 -0.194244 0.0
1.173837 -0.148644 0.0
1.141315 -0.119577 0.0
1.134744 -0.096531 0.0
1.156450 -0.059609 0.0
1.191590 0.008935 0.0
1.216580 0.089482 0.0
1.222960 0.162226 0.0
1.213593 0.222771 0.0
1.190865 0.269218 0.0
1.156636 0.300740 0.0
1.112619 0.317029 0.0
1.060549 0.318069 0.0
1.002013 0.304328 0.0
0.937438 0.277479 0.0
0.863843 0.241272 0.0
0.774201 0.200392 0.0
0.665897 0.156355 0.0
0.555181 0.105904 0.0
0.473514 0.043346 0.0
0.438463 -0.039382 0.0
0.442459 -0.135167 0.0
0.470171 -0.224860 0.0
0.511981 -0.293270 0.0
0.565107 -0.330302 0.0
0.629368 -0.329662 0.0
0.704417 -0.289223 0.0
0.788582 -0.212449 0.0
0.878022 -0.109327 0.0
0.962309 0.000588 0.0
1.029311 0.093063 0.0
1.076517 0.164480 0.0
1.106911 0.218378 0.0
1.122741 0.257444 0.0
1.126076 0.283905 0.0
1.118906 0.299660 0.0
1.103106 0.306342 0.0
1.080367 0.305361 0.0
1.052102 0.297967 0.0
1.019294 0.285461 0.0
0.982278 0.269586 0.0
0.940700 0.252716 0.0
0.894180 0.236902 0.0
0.843860 0.221499 0.0
0.793710 0.201453 0.0
0.749790 0.169363 0.0
0.717346 0.120806 0.0
0.698285 0.057750 0.0
0.691249 -0.013058 0.0
0.693361 -0.084101 0.0
0.701717 -0.149783 0.0
0.714035 -0.206800 0.0
0.728708 -0.253362 0.0
0.744774 -0.288399 0.0
0.761906 -0.310951 0.0
0.780335 -0.319820 0.0
0.800627 -0.313625 0.0
0.823333 -0.291282 0.0
0.848688 -0.252711 0.0
0.876454 -0.199401 0.0
0.905935 -0.134570 0.0
0.936015 -0.062945 0.0
0.964749 0.009141 0.0
0.989710 0.074265 0.0
1.009209 0.128803 0.0
1.022394 0.171029 0.0
1.028849 0.200554 0.0
1.028460 0.218066 0.0
1.021313 0.225129 0.0
1.007611 0.224001 0.0
0.987664 0.217369 0.0
0.961985 0.207872 0.0
0.931495 0.197377 0.0
0.897703 0.186289 0.0
0.862688 0.173422 0.0
0.828765 0.156758 0.0
0.797976 0.134709 0.0
0.771689 0.107067 0.0
0.750507 0.075081 0.0
0.734443 0.040867 0.0
0.723174 0.006720 0.0
0.716178 -0.025345 0.0
0.712823 -0.053761 0.0
0.712467 -0.077106 0.0
0.714478 -0.094224 0.0
0.718259 -0.104227 0.0
0.723279 -0.106428 0.0
0.729066 -0.100397 0.0
0.735168 -0.084032 0.0
0.999293 -0.015905 0.0
0.996430 -0.049308 0.0
0.990557 -0.086589 0.0
0.981416 -0.130668 0.0
0.968829 -0.185838 0.0
0.953372 -0.259119 0.0
0.938651 -0.363353 0.0
0.939799 -0.517877 0.0
1.042539 -0.906967 0.0
1.037360 -0.207996 0.0
0.835357 -0.114091 0.0
0.683430 -0.112904 0.0
0.598157 -0.091771 0.0
0.545685 -0.091456 0.0
0.538779 -0.111177 0.0
0.582289 -0.110179 0.0
0.663635 -0.056981 0.0
0.750085 0.043958 0.0
0.812912 0.138542 0.0
0.851353 0.217379 0.0
0.868322 0.280370 0.0
0.865052 0.327088 0.0
0.842402 0.357350 0.0
0.800672 0.371547 0.0
0.738796 0.371263 0.0
0.654199 0.359716 0.0
0.546745 0.340084 0.0
0.428069 0.309897 0.0
0.324085 0.259139 0.0
0.259647 0.178273 0.0
0.241709 0.070584 0.0
0.259139 -0.049000 0.0
0.293824 -0.164230 0.0
0.333814 -0.263500 0.0
0.376489 -0.339114 0.0
0.423475 -0.384570 0.0
0.477952 -0.394132 0.0
0.542549 -0.364400 0.0
0.617911 -0.296799 0.0
0.702344 -0.198849 0.0
0.791689 -0.083523 0.0
0.874576 0.027284 0.0
0.940849 0.116780 0.0
0.989997 0.186536 0.0
1.023777 0.239676 0.0
1.043672 0.278444 0.0
1.051232 0.304731 0.0
1.048064 0.320240 0.0
1.035709 0.326557 0.0
1.015487 0.325258 0.0
0.988269 0.318195 0.0
0.954336 0.307801 0.0
0.913700 0.296716 0.0
0.867260 0.285862 0.0
0.818241 0.271879 0.0
0.772307 0.247158 0.0
0.735378 0.204506 0.0
0.710753 0.142730 0.0
0.698244 0.067396 0.0
0.695618 -0.013042 0.0
0.700238 -0.090849 0.0
0.709721 -0.160874 0.0
0.722051 -0.220356 0.0
0.735618 -0.268047 0.0
0.749328 -0.303490 0.0
0.762736 -0.326399 0.0
0.776108 -0.336173 0.0
0.790286 -0.331741 0.0
0.806327 -0.311913 0.0
0.825053 -0.276162 0.0
0.846741 -0.225405 0.0
0.871048 -0.162354 0.0
0.897110 -0.091303 0.0
0.923546 -0.017669 0.0
0.948176 0.051483 0.0
0.968910 0.111352 0.0
0.984506 0.159698 0.0
0.994177 0.195758 0.0
0.997466 0.219961 0.0
0.994148 0.233700 0.0
0.984184 0.239096 0.0
0.967765 0.238640 0.0
0.945441 0.234603 0.0
0.918300 0.228278 0.0
0.888028 0.219452 0.0
0.856724 0.206578 0.0
0.826486 0.187762 0.0
0.798989 0.161991 0.0
0.775267 0.129794 0.0
0.755782 0.093021 0.0
0.740625 0.054148 0.0
0.729670 0.015662 0.0
0.722635 -0.020256 0.0
0.719067 -0.051929 0.0
0.718377 -0.077893 0.0
0.719913 -0.096984 0.0
0.723028 -0.108364 0.0
0.727164 -0.111446 0.0
0.731913 -0.105915 0.0
0.737008 -0.089712 0.0
0.998711 -0.013909 0.0
0.993421 -0.043150 0.0
0.982229 -0.075682 0.0
0.963716 -0.113922 0.0
0.935225 -0.161506 0.0
0.891862 -0.224631 0.0
0.824020 -0.315278 0.0
0.713914 -0.456994 0.0
0.322728 -0.787056 0.0
-0.469337 0.286643 0.0
-0.469337 0.000000 0.0
-0.043971 -0.031319 0.0
-0.078655 -0.066051 0.0
-0.030476 -0.112880 0.0
0.055553 -0.168875 0.0
0.144769 -0.185207 0.0
0.229410 -0.147940 0.0
0.321397 -0.043519 0.0
0.408085 0.076505 0.0
0.471821 0.177239 0.0
0.513084 0.262278 0.0
0.530101 0.331432 0.0
0.521111 0.384645 0.0
0.484523 0.422569 0.0
0.420103 0.446538 0.0
0.332648 0.456492 0.0
0.237630 0.445780 0.0
0.162218 0.398289 0.0
0.126818 0.310132 0.0
0.131337 0.187199 0.0
0.163623 0.047310 0.0
0.207884 -0.087417 0.0
0.252662 -0.205276 0.0
0.293504 -0.303286 0.0
0.329892 -0.378391 0.0
0.364527 -0.426914 0.0
0.402459 -0.444195 0.0
0.449218 -0.425694 0.0
0.508342 -0.369992 0.0
0.579859 -0.281606 0.0
0.660664 -0.170915 0.0
0.744838 -0.052384 0.0
0.821169 0.053844 0.0
0.882233 0.139260 0.0
0.928541 0.206865 0.0
0.961011 0.258891 0.0
0.980637 0.297097 0.0
0.988551 0.323129 0.0
0.985906 0.338667 0.0
0.973680 0.345595 0.0
0.952484 0.346270 0.0
0.922644 0.343500 0.0
0.884909 0.339388 0.0
0.841722 0.332817 0.0
0.797929 0.317735 0.0
0.759594 0.285570 0.0
0.731303 0.231314 0.0
0.714403 0.157448 0.0
0.707633 0.071957 0.0
0.708847 -0.016190 0.0
0.715911 -0.099385 0.0
0.726814 -0.172725 0.0
0.739695 -0.233715 0.0
0.752910 -0.281471 0.0
0.765206 -0.316073 0.0
0.775936 -0.337954 0.0
0.785229 -0.347285 0.0
0.794000 -0.343578 0.0
0.803668 -0.325784 0.0
0.815647 -0.292996 0.0
0.830830 -0.245441 0.0
0.849339 -0.185133 0.0
0.870587 -0.115834 0.0
0.893477 -0.042463 0.0
0.916190 0.028933 0.0
0.936633 0.092725 0.0
0.953233 0.146130 0.0
0.964896 0.187993 0.0
0.970873 0.218460 0.0
0.970686 0.238705 0.0
0.964120 0.250620 0.0
0.951292 0.256363 0.0
0.932792 0.257703 0.0
0.909783 0.255327 0.0
0.883936 0.248521 0.0
0.857155 0.235595 0.0
0.831180 0.214958 0.0
0.807297 0.186175 0.0
0.786301 0.150329 0.0
0.768638 0.109634 0.0
0.754558 0.066771 0.0
0.744182 0.024370 0.0
0.737458 -0.015204 0.0
0.734097 -0.050051 0.0
0.733577 -0.078561 0.0
0.735224 -0.099499 0.0
0.738320 -0.112060 0.0
0.742223 -0.115790 0.0
0.746485 -0.110583 0.0
0.750916 -0.094569 0.0
0.998283 -0.010904 0.0
0.991216 -0.033798 0.0
0.976179 -0.058805 0.0
0.951045 -0.087152 0.0
0.911706 -0.120445 0.0
0.850238 -0.160862 0.0
0.750247 -0.211214 0.0
0.572794 -0.273499 0.0
0.228878 -0.337857 0.0
0.000000 0.286643 0.0
-0.000000 -0.000000 0.0
0.000000 0.000000 0.0
-0.038000 -0.037669 0.0
-0.082617 -0.145154 0.0
-0.082389 -0.222858 0.0
-0.062584 -0.240245 0.0
-0.035696 -0.204431 0.0
0.007665 -0.122376 0.0
0.074940 0.001400 0.0
0.141703 0.121844 0.0
0.189466 0.228646 0.0
0.215166 0.322347 0.0
0.215563 0.402322 0.0
0.190128 0.466915 0.0
0.143803 0.512937 0.0
0.088974 0.532377 0.0
0.048205 0.505682 0.0
0.042460 0.419543 0.0
0.072094 0.294644 0.0
0.124404 0.145858 0.0
0.185840 -0.005071 0.0
0.244357 -0.137814 0.0
0.294147 -0.249448 0.0
0.333764 -0.339573 0.0
0.363093 -0.407821 0.0
0.384397 -0.453423 0.0
0.402905 -0.474125 0.0
0.426149 -0.465767 0.0
0.461368 -0.424261 0.0
0.512143 -0.349630 0.0
0.576999 -0.248552 0.0
0.650874 -0.132796 0.0
0.725808 -0.017009 0.0
0.792190 0.082667 0.0
0.845470 0.163870 0.0
0.886019 0.228868 0.0
0.914265 0.279247 0.0
0.930793 0.316538 0.0
0.936232 0.342465 0.0
0.931101 0.359154 0.0
0.915765 0.369243 0.0
0.890800 0.375333 0.0
0.857926 0.378164 0.0
0.820924 0.374229 0.0
0.785348 0.355691 0.0
0.756508 0.314789 0.0
0.737239 0.249655 0.0
0.727542 0.165704 0.0
0.725953 0.072059 0.0
0.730778 -0.022331 0.0
0.740309 -0.109838 0.0
0.752756 -0.185623 0.0
0.766360 -0.247302 0.0
0.779501 -0.294239 0.0
0.790858 -0.326959 0.0
0.799618 -0.346558 0.0
0.805694 -0.354050 0.0
0.809872 -0.349762 0.0
0.813705 -0.333103 0.0
0.819067 -0.303019 0.0
0.827505 -0.259038 0.0
0.839742 -0.202282 0.0
0.855581 -0.135773 0.0
0.874112 -0.063946 0.0
0.893846 0.007969 0.0
0.912845 0.074248 0.0
0.929314 0.131538 0.0
0.941938 0.178297 0.0
0.949750 0.214367 0.0
0.952085 0.240650 0.0
0.948607 0.258720 0.0
0.939395 0.270303 0.0
0.925042 0.276615 0.0
0.906675 0.277791 0.0
0.885803 0.272777 0.0
0.864000 0.259924 0.0
0.842593 0.238012 0.0
0.822522 0.207074 0.0
0.804418 0.168530 0.0
0.788762 0.124752 0.0
0.775991 0.078505 0.0
0.766449 0.032554 0.0
0.760297 -0.010512 0.0
0.757400 -0.048486 0.0
0.757323 -0.079529 0.0
0.759409 -0.102266 0.0
0.762895 -0.115874 0.0
0.767039 -0.120022 0.0
0.771281 -0.114856 0.0
0.775359 -0.098806 0.0
0.998093 -0.007280 0.0
0.990260 -0.022521 0.0
0.973688 -0.038473 0.0
0.946326 -0.054988 0.0
0.904498 -0.071442 0.0
0.842067 -0.085965 0.0
0.749709 -0.093762 0.0
0.616228 -0.080016 0.0
0.439368 -0.005318 0.0
0.170477 0.152521 0.0
0.000000 0.000000 0.0
-0.000000 -0.000000 0.0
0.000000 0.000000 0.0
-0.068376 -0.069268 0.0
-0.155463 -0.210993 0.0
-0.177153 -0.250226 0.0
-0.185537 -0.212955 0.0
-0.186262 -0.156488 0.0
-0.158714 -0.059311 0.0
-0.107231 0.064309 0.0
-0.055598 0.186785 0.0
-0.019309 0.302219 0.0
-0.002732 0.405477 0.0
-0.003308 0.489772 0.0
-0.012688 0.545785 0.0
-0.015993 0.557663 0.0
0.006285 0.498888 0.0
0.057401 0.380965 0.0
0.126606 0.234382 0.0
0.205237 0.075179 0.0
0.280366 -0.070957 0.0
0.343706 -0.193785 0.0
0.394583 -0.294144 0.0
0.432181 -0.372092 0.0
0.456169 -0.428619 0.0
0.467498 -0.465259 0.0
0.469572 -0.482871 0.0
0.469229 -0.479921 0.0
0.475915 -0.452013 0.0
0.498061 -0.394800 0.0
0.538794 -0.308971 0.0
0.594888 -0.202346 0.0
0.659488 -0.086993 0.0
0.723230 0.022526 0.0
0.778498 0.115463 0.0
0.822998 0.192227 0.0
0.856493 0.254146 0.0
0.878987 0.302617 0.0
0.890564 0.339370 0.0
0.891322 0.366622 0.0
0.881544 0.386889 0.0
0.862291 0.401904 0.0
0.836231 0.410527 0.0
0.807908 0.407191 0.0
0.782584 0.383629 0.0
0.764124 0.334152 0.0
0.753793 0.259892 0.0
0.750935 0.168022 0.0
0.754327 0.067938 0.0
0.762713 -0.031423 0.0
0.774623 -0.122187 0.0
0.788395 -0.199492 0.0
0.802395 -0.261037 0.0
0.815134 -0.306384 0.0
0.825374 -0.336410 0.0
0.832267 -0.352758 0.0
0.835556 -0.357214 0.0
0.835791 -0.351011 0.0
0.834413 -0.334309 0.0
0.833500 -0.306262 0.0
0.835149 -0.265882 0.0