# vtk DataFile Version 3.0
Scalar Field
ASCII
DATASET RECTILINEAR_GRID
DIMENSIONS 100 26 1
X_COORDINATES 100 double
0.050000 0.150000 0.250000 0.350000 0.450000 0.550000 0.650000 0.750000 0.850000 0.950000 1.050000 1.150000 1.250000 1.350000 1.450000 1.550000 1.650000 1.750000 1.850000 1.950000 2.050000 2.150000 2.250000 2.350000 2.450000 2.550000 2.650000 2.750000 2.850000 2.950000 3.050000 3.150000 3.250000 3.350000 3.450000 3.550000 3.650000 3.750000 3.850000 3.950000 4.050000 4.150000 4.250000 4.350000 4.450000 4.550000 4.650000 4.750000 4.850000 4.950000 5.050000 5.150000 5.250000 5.350000 5.450000 5.550000 5.650000 5.750000 5.850000 5.950000 6.050000 6.150000 6.250000 6.350000 6.450000 6.550000 6.650000 6.750000 6.850000 6.950000 7.050000 7.150000 7.250000 7.350000 7.450000 7.550000 7.650000 7.750000 7.850000 7.950000 8.050000 8.150000 8.250000 8.350000 8.450000 8.550000 8.650000 8.750000 8.850000 8.950000 9.050000 9.150000 9.250000 9.350000 9.450000 9.550000 9.650000 9.750000 9.850000 9.950000 
Y_COORDINATES 26 double
0.050000 0.150000 0.250000 0.350000 0.450000 0.550000 0.650000 0.750000 0.850000 0.950000 1.050000 1.150000 1.250000 1.350000 1.450000 1.550000 1.650000 1.750000 1.850000 1.950000 2.050000 2.150000 2.250000 2.350000 2.450000 2.550000 
Z_COORDINATES 1 double
0.0
POINT_DATA 2600
SCALARS Skalarfeld double 1
LOOKUP_TABLE default
0.158496
0.154491
0.145952
0.132480
0.113857
0.090019
0.061143
0.027785
-0.008999
-0.047615
-0.086046
-0.122165
-0.154085
-0.180396
-0.200267
-0.213433
-0.220109
-0.220841
-0.216493
-0.208131
-0.196916
-0.184029
-0.170623
-0.157704
-0.146137
-0.136561
-0.129255
-0.124051
-0.120336
-0.117183
-0.113521
-0.108330
-0.101090
-0.091691
-0.080382
-0.067668
-0.054182
-0.040571
-0.027412
-0.015154
-0.004092
0.005640
0.014059
0.021316
0.027662
0.033413
0.038893
0.044342
0.050074
0.056095
0.062063
0.067475
0.071701
0.074047
0.073883
0.070804
0.064835
0.056586
0.047245
0.038318
0.031153
0.026819
0.025534
0.026826
0.029921
0.033917
0.037968
0.041422
0.043907
0.045348
0.045942
0.046066
0.046149
0.046534
0.047369
0.048567
0.050195
0.051994
0.053883
0.055909
0.058184
0.060810
0.063830
0.067168
0.070611
0.073811
0.076319
0.077668
0.077456
0.075452
0.071677
0.066441
0.060305
0.053943
0.047898
0.042318
0.036895
0.030521
0.021438
-0.001658
0.162082
0.158933
0.150611
0.137065
0.118118
0.093653
0.063776
0.029009
-0.009538
-0.050097
-0.090358
-0.127933
-0.160802
-0.187548
-0.207401
-0.220177
-0.226158
-0.225975
-0.220553
-0.211017
-0.198589
-0.184515
-0.170010
-0.156207
-0.144098
-0.134396
-0.127411
-0.122925
-0.120184
-0.118033
-0.115260
-0.110717
-0.103821
-0.094487
-0.083033
-0.070039
-0.056206
-0.042232
-0.028724
-0.016149
-0.004811
0.005157
0.013773
0.021193
0.027671
0.033530
0.039115
0.044757
0.050507
0.056281
0.061849
0.066781
0.070509
0.072409
0.071893
0.068562
0.062391
0.053906
0.044227
0.034898
0.027549
0.023150
0.021890
0.023335
0.026689
0.031010
0.035413
0.039224
0.042059
0.043845
0.044783
0.045251
0.045666
0.046343
0.047421
0.048890
0.050413
0.051994
0.053622
0.055380
0.057391
0.059768
0.062553
0.065675
0.068920
0.071941
0.074302
0.075553
0.075314
0.073371
0.069745
0.064723
0.058831
0.052721
0.046998
0.042029
0.037563
0.032714
0.026238
0.011923
0.171389
0.168449
0.160211
0.146497
0.126987
0.101367
0.069537
0.031886
-0.010407
-0.055197
-0.099434
-0.140101
-0.174912
-0.202481
-0.222208
-0.234105
-0.238644
-0.236528
-0.228838
-0.216832
-0.201856
-0.185298
-0.168541
-0.152916
-0.139648
-0.129673
-0.123407
-0.120542
-0.120012
-0.120217
-0.119510
-0.116407
-0.110242
-0.101033
-0.089257
-0.075657
-0.061070
-0.046289
-0.031982
-0.018647
-0.006601
0.004016
0.013224
0.021171
0.028102
0.034313
0.040110
0.045758
0.051394
0.056870
0.061948
0.066237
0.069245
0.070432
0.069271
0.065354
0.058589
0.049394
0.038810
0.028415
0.019991
0.015027
0.013731
0.015429
0.019307
0.024361
0.029644
0.034429
0.038296
0.041137
0.043110
0.044524
0.045712
0.046908
0.048202
0.049559
0.050860
0.052058
0.053253
0.054554
0.056096
0.058016
0.060375
0.063118
0.066037
0.068791
0.070955
0.072096
0.071856
0.070032
0.066644
0.061964
0.056489
0.050862
0.045727
0.041543
0.038446
0.036190
0.033953
0.030641
0.186018
0.183161
0.174994
0.161130
0.140957
0.113771
0.079029
0.036772
-0.011803
-0.063951
-0.114939
-0.160536
-0.198164
-0.226681
-0.245879
-0.256132
-0.258193
-0.252909
-0.241604
-0.225691
-0.206694
-0.186194
-0.165793
-0.147156
-0.131950
-0.121545
-0.116607
-0.116695
-0.120166
-0.124528
-0.127195
-0.126301
-0.121122
-0.111900
-0.099416
-0.084703
-0.068818
-0.052702
-0.037106
-0.022569
-0.009424
0.002186
0.012272
0.020970
0.028503
0.035139
0.041152
0.046782
0.052195
0.057379
0.061928
0.065482
0.067635
0.067972
0.066047
0.061466
0.054068
0.044140
0.032578
0.020882
0.010915
0.004427
0.002712
0.004560
0.009040
0.015053
0.021556
0.027733
0.033079
0.037406
0.040779
0.043407
0.045528
0.047321
0.048869
0.050172
0.051192
0.051931
0.052471
0.053028
0.053926
0.055205
0.056952
0.059163
0.061654
0.064097
0.066078
0.067180
0.067055
0.065508
0.062552
0.058433
0.053622
0.048748
0.044489
0.041433
0.039945
0.040251
0.042329
0.048329
0.205811
0.203080
0.195169
0.181429
0.160808
0.131938
0.093423
0.044474
-0.013973
-0.078472
-0.140143
-0.192646
-0.233529
-0.262544
-0.280280
-0.287689
-0.285794
-0.275853
-0.259323
-0.237804
-0.213045
-0.186881
-0.161171
-0.137936
-0.119683
-0.108595
-0.105894
-0.110967
-0.121175
-0.132430
-0.140376
-0.142434
-0.138253
-0.128520
-0.114568
-0.097907
-0.079932
-0.061781
-0.044305
-0.028081
-0.013447
-0.000546
0.010638
0.020238
0.028467
0.035581
0.041834
0.047425
0.052436
0.057143
0.061039
0.063691
0.064794
0.064133
0.061422
0.056337
0.048672
0.038552
0.026635
0.014187
0.002950
-0.005263
-0.008779
-0.007092
-0.002284
0.004538
0.012230
0.019851
0.026775
0.032689
0.037539
0.041430
0.044521
0.046952
0.048805
0.050104
0.050851
0.051084
0.050934
0.050641
0.050482
0.050934
0.051934
0.053534
0.055573
0.057736
0.059619
0.060811
0.060973
0.059904
0.057597
0.054268
0.050349
0.046445
0.043252
0.041450
0.041617
0.044187
0.049631
0.062348
0.230531
0.228075
0.220849
0.207903
0.187598
0.157544
0.114794
0.056662
-0.017141
-0.103218
-0.181189
-0.241901
-0.285109
-0.313018
-0.327543
-0.330272
-0.322671
-0.306309
-0.282669
-0.253560
-0.221017
-0.187213
-0.154367
-0.124554
-0.101563
-0.089108
-0.089572
-0.102146
-0.122712
-0.144748
-0.161020
-0.166859
-0.163400
-0.152254
-0.135695
-0.115964
-0.094909
-0.073903
-0.053888
-0.035461
-0.018948
-0.004468
0.008011
0.018639
0.027638
0.035265
0.041754
0.047244
0.051713
0.054974
0.057821
0.059213
0.058881
0.057020
0.053633
0.048494
0.041312
0.031986
0.020857
0.008843
-0.002598
-0.011752
-0.017150
-0.016795
-0.012331
-0.005293
0.003095
0.011777
0.019982
0.027255
0.033406
0.038426
0.042398
0.045418
0.047555
0.048834
0.049271
0.048930
0.047987
0.046755
0.045625
0.044984
0.045174
0.046157
0.047791
0.049766
0.051682
0.053133
0.053775
0.053392
0.051947
0.049613
0.046771
0.043987
0.041947
0.041381
0.042986
0.047390
0.055166
0.072009
0.259667
0.257730
0.251893
0.240933
0.222560
0.193014
0.146730
0.076866
-0.021366
-0.148229
-0.248985
-0.315314
-0.356446
-0.379876
-0.388685
-0.384544
-0.369755
-0.345217
-0.312495
-0.273689
-0.231219
-0.187725
-0.145959
-0.108444
-0.078193
-0.062602
-0.066262
-0.087885
-0.121481
-0.157930
-0.186853
-0.198925
-0.195798
-0.182297
-0.162053
-0.138283
-0.113359
-0.088874
-0.065833
-0.044824
-0.026143
-0.009877
0.004037
0.015771
0.025565
0.033676
0.040297
0.045459
0.049005
0.050698
0.050403
0.049759
0.047640
0.044721
0.041222
0.036860
0.031163
0.023775
0.014698
0.004463
-0.005844
-0.014745
-0.020725
-0.022627
-0.019166
-0.012671
-0.004357
0.004673
0.013544
0.021664
0.028706
0.034541
0.039161
0.042605
0.044905
0.046070
0.046112
0.045117
0.043315
0.041102
0.038972
0.037372
0.036743
0.037154
0.038467
0.040375
0.042480
0.044368
0.045682
0.046181
0.045786
0.044613
0.042983
0.041404
0.040526
0.041081
0.043821
0.049464
0.058690
0.077498
0.292265
0.291161
0.287658
0.280423
0.266726
0.241417
0.195209
0.112847
-0.026428
-0.237017
-0.359671
-0.415797
-0.444139
-0.458740
-0.460040
-0.449099
-0.426595
-0.392776
-0.349539
-0.299466
-0.245472
-0.190791
-0.139016
-0.094118
-0.056821
-0.034989
-0.040180
-0.069206
-0.113673
-0.162767
-0.204704
-0.229002
-0.227838
-0.212400
-0.188721
-0.161201
-0.132710
-0.105007
-0.079133
-0.055669
-0.034899
-0.016902
-0.001609
0.011154
0.021623
0.030017
0.036406
0.040607
0.042284
0.041309
0.038135
0.033748
0.030011
0.026903
0.024315
0.021729
0.018489
0.014024
0.008046
0.000713
-0.007289
-0.014818
-0.020547
-0.023394
-0.021829
-0.016466
-0.008998
-0.000428
0.008343
0.016632
0.023994
0.030183
0.035093
0.038685
0.040940
0.041831
0.041360
0.039632
0.036934
0.033749
0.030664
0.028223
0.026829
0.026741
0.027837
0.029816
0.032274
0.034779
0.036947
0.038498
0.039301
0.039409
0.039070
0.038718
0.038948
0.040459
0.044001
0.050318
0.060117
0.079173
0.326800
0.326847
0.326680
0.325210
0.319941
0.305343
0.268932
0.182289
-0.026671
-0.426916
-0.525229
-0.525097
-0.525943
-0.531571
-0.529838
-0.516636
-0.488327
-0.446151
-0.393082
-0.332440
-0.267652
-0.202563
-0.141550
-0.090015
-0.053931
-0.029053
-0.034349
-0.064263
-0.109189
-0.159694
-0.205595
-0.237372
-0.246095
-0.231191
-0.206658
-0.177844
-0.147926
-0.118752
-0.091401
-0.066502
-0.044401
-0.025245
-0.009031
0.004350
0.015048
0.023110
0.028325
0.030260
0.028681
0.024102
0.017895
0.011648
0.007298
0.005099
0.004418
0.004459
0.004399
0.003508
0.001279
-0.002439
-0.007334
-0.012618
-0.017192
-0.019933
-0.019941
-0.016298
-0.010289
-0.002877
0.005069
0.012836
0.019899
0.025915
0.030682
0.034078
0.036018
0.036431
0.035303
0.032755
0.029126
0.024976
0.020976
0.017744
0.015685
0.015182
0.016176
0.018374
0.021353
0.024650
0.027836
0.030579
0.032688
0.034143
0.035113
0.035954
0.037185
0.039453
0.043470
0.049961
0.059614
0.077647
0.361175
0.362577
0.366436
0.372343
0.379109
0.383326
0.374839
0.321012
0.075350
-0.777815
-0.712951
-0.587015
-0.562717
-0.567067
-0.576543
-0.568811
-0.539640
-0.494069
-0.436554
-0.371147
-0.301834
-0.233853
-0.172155
-0.121818
-0.086718
-0.072259
-0.074595
-0.093251
-0.123995
-0.160952
-0.196935
-0.224239
-0.236940
-0.229988
-0.208347
-0.181895
-0.153856
-0.126038
-0.099536
-0.075071
-0.053127
-0.034011
-0.017881
-0.004798
0.005170
0.011771
0.014505
0.012946
0.007441
-0.000491
-0.008648
-0.015198
-0.018558
-0.018742
-0.016661
-0.013336
-0.009746
-0.006740
-0.004971
-0.004808
-0.006237
-0.008804
-0.011677
-0.013870
-0.014566
-0.012678
-0.008314
-0.002495
0.004084
0.010755
0.016966
0.022309
0.026500
0.029339
0.030672
0.030380
0.028427
0.024951
0.020336
0.015201
0.010288
0.006277
0.003643
0.002795
0.003802
0.006366
0.010033
0.014287
0.018635
0.022677
0.026151
0.028964
0.031204
0.033144
0.035226
0.038027
0.042205
0.048441
0.057382
0.073532
0.392934
0.395652
0.403472
0.416873
0.436649
0.463740
0.498413
0.536236
0.615006
-0.081405
-0.639450
-0.565950
-0.561581
-0.565195
-0.580552
-0.582307
-0.558134
-0.517732
-0.466073
-0.407658
-0.346355
-0.289982
-0.241040
-0.203552
-0.178765
-0.166957
-0.157359
-0.154607
-0.160504
-0.172885
-0.188231
-0.201682
-0.208472
-0.205895
-0.192017
-0.170878
-0.147690
-0.124034
-0.100907
-0.079082
-0.059198
-0.041765
-0.027169
-0.015721
-0.007791
-0.003949
-0.004833
-0.010507
-0.019729
-0.030064
-0.038934
-0.044652
-0.045823
-0.043032
-0.037440
-0.030293
-0.022741
-0.015742
-0.010031
-0.006092
-0.004104
-0.003864
-0.004787
-0.006029
-0.006715
-0.006115
-0.003538
0.000487
0.005395
0.010596
0.015553
0.019829
0.023079
0.025039
0.025490
0.024268
0.021320
0.016791
0.011103
0.004929
-0.000930
-0.005723
-0.008903
-0.010027
-0.008898
-0.005828
-0.001320
0.004033
0.009656
0.015063
0.019915
0.024040
0.027452
0.030345
0.033085
0.036176
0.040217
0.045833
0.053622
0.067320
0.419700
0.423404
0.434173
0.453089
0.482254
0.525370
0.588961
0.684290
0.817568
0.856157
0.000000
-0.561631
-0.557312
-0.550470
-0.553374
-0.553556
-0.537263
-0.507264
-0.469435
-0.429573
-0.393277
-0.363365
-0.339051
-0.318223
-0.299927
-0.279317
-0.254214
-0.229060
-0.207664
-0.192227
-0.182738
-0.177501
-0.173599
-0.168177
-0.159587
-0.146148
-0.129420
-0.111834
-0.094053
-0.076798
-0.060803
-0.046755
-0.035265
-0.026916
-0.022396
-0.022536
-0.027889
-0.037880
-0.050351
-0.062265
-0.070992
-0.075010
-0.073074
-0.066504
-0.056766
-0.045378
-0.033684
-0.022748
-0.013348
-0.005994
-0.000935
0.001883
0.002861
0.002692
0.002197
0.002087
0.003195
0.005529
0.008718
0.012299
0.015792
0.018757
0.020820
0.021663
0.021017
0.018679
0.014580
0.008876
0.002020
-0.005267
-0.012123
-0.017720
-0.021428
-0.022770
-0.021427
-0.017738
-0.012275
-0.005720
0.001243
0.008032
0.014218
0.019555
0.023985
0.027637
0.030805
0.033929
0.037546
0.042229
0.048524
0.059392
0.439697
0.443860
0.455941
0.477069
0.509291
0.555721
0.620121
0.704149
0.801776
0.894747
0.813742
0.000000
-0.541626
-0.525940
-0.510846
-0.500251
-0.487399
-0.469701
-0.452354
-0.440868
-0.437934
-0.441682
-0.445469
-0.439687
-0.420885
-0.386050
-0.343009
-0.295477
-0.249683
-0.209630
-0.177476
-0.153802
-0.137588
-0.126602
-0.118281
-0.110486
-0.100920
-0.090180
-0.078775
-0.067309
-0.056526
-0.047218
-0.040174
-0.036238
-0.036396
-0.041617
-0.052135
-0.066584
-0.082016
-0.095060
-0.103220
-0.104530
-0.098856
-0.087912
-0.073601
-0.057758
-0.041930
-0.027276
-0.014582
-0.004323
0.003277
0.008236
0.010851
0.011698
0.011536
0.011127
0.011064
0.011979
0.013594
0.015606
0.017611
0.019192
0.019959
0.019561
0.017691
0.014118
0.008762
0.001795
-0.006300
-0.014759
-0.022652
-0.029068
-0.033288
-0.034789
-0.033169
-0.028798
-0.022321
-0.014532
-0.006229
0.001892
0.009308
0.015698
0.020944
0.025116
0.028456
0.031346
0.034269
0.037746
0.042277
0.050054
0.452100
0.456178
0.467922
0.488116
0.517999
0.559092
0.612753
0.678359
0.743858
0.769073
0.732737
0.621522
0.000000
-0.497531
-0.469122
-0.443647
-0.430795
-0.423472
-0.425844
-0.442682
-0.472837
-0.508690
-0.537699
-0.545414
-0.517969
-0.468131
-0.405982
-0.339043
-0.273977
-0.215557
-0.166667
-0.128704
-0.101735
-0.084477
-0.074518
-0.069015
-0.065371
-0.060872
-0.055824
-0.050481
-0.045493
-0.041686
-0.039992
-0.041502
-0.047442
-0.058731
-0.075041
-0.094150
-0.112450
-0.126360
-0.133514
-0.131462
-0.121516
-0.105865
-0.086869
-0.066676
-0.047002
-0.029066
-0.013626
-0.001074
0.008453
0.015018
0.018889
0.020564
0.020738
0.020171
0.019530
0.019218
0.019503
0.020143
0.020793
0.021066
0.020570
0.018931
0.015817
0.010980
0.004341
-0.003910
-0.013260
-0.022895
-0.031822
-0.039038
-0.043724
-0.045336
-0.043413
-0.038357
-0.030894
-0.021925
-0.012372
-0.003049
0.005423
0.012650
0.018462
0.022887
0.026125
0.028513
0.030488
0.032526
0.035081
0.039576
0.457071
0.460638
0.470829
0.488079
0.512958
0.545763
0.585402
0.627113
0.658194
0.652564
0.592321
0.510308
0.351238
0.000000
-0.429312
-0.389502
-0.382131
-0.381052
-0.396451
-0.434144
-0.491733
-0.555621
-0.603098
-0.612270
-0.574067
-0.511697
-0.435573
-0.354946
-0.277136
-0.207168
-0.147991
-0.101003
-0.066480
-0.043735
-0.031049
-0.025789
-0.025021
-0.025921
-0.026465
-0.026783
-0.027443
-0.029301
-0.033431
-0.041142
-0.053758
-0.071884
-0.094428
-0.118310
-0.139377
-0.153858
-0.159430
-0.153587
-0.139131
-0.118835
-0.095474
-0.071445
-0.048566
-0.028051
-0.010580
0.003566
0.014373
0.021990
0.026706
0.028974
0.029422
0.028766
0.027653
0.026619
0.025935
0.025500
0.025043
0.024204
0.022595
0.019829
0.015558
0.009530
0.001676
-0.007792
-0.018325
-0.029064
-0.038949
-0.046895
-0.051987
-0.053642
-0.051423
-0.045752
-0.037421
-0.027430
-0.016819
-0.006515
0.002765
0.010559
0.016651
0.021039
0.023897
0.025529
0.026333
0.026742
0.027163
0.028242
0.455548
0.458392
0.466424
0.479666
0.497949
0.520429
0.544662
0.565043
0.570726
0.544103
0.467671
0.332965
0.192168
-0.208180
-0.413390
-0.354559
-0.342378
-0.341756
-0.366894
-0.420425
-0.495166
-0.573007
-0.627332
-0.625270
-0.583123
-0.514673
-0.432288
-0.346057
-0.263370
-0.188995
-0.125552
-0.074160
-0.035047
-0.007861
0.008375
0.015442
0.015890
0.012382
0.007444
0.002558
-0.003049
-0.010312
-0.020419
-0.034783
-0.054584
-0.079843
-0.108593
-0.136991
-0.160466
-0.175099
-0.178502
-0.168480
-0.149735
-0.125380
-0.098481
-0.071575
-0.046489
-0.024357
-0.005734
0.009238
0.020672
0.028818
0.034003
0.036653
0.037322
0.036668
0.035334
0.033830
0.032493
0.031308
0.030046
0.028367
0.025882
0.022194
0.016950
0.009899
0.000990
-0.009535
-0.021090
-0.032770
-0.043458
-0.052000
-0.057406
-0.059032
-0.056554
-0.050399
-0.041404
-0.030649
-0.019270
-0.008296
0.001471
0.009508
0.015566
0.019624
0.021839
0.022493
0.021948
0.020595
0.018789
0.016382
0.448842
0.450841
0.456388
0.465211
0.476650
0.489253
0.500112
0.503917
0.491899
0.451013
0.364365
0.209553
-0.060313
-0.608527
-0.472220
-0.355436
-0.319574
-0.319799
-0.351915
-0.411412
-0.488200
-0.563415
-0.606010
-0.595008
-0.550263
-0.482269
-0.402097
-0.318920
-0.239332
-0.167462
-0.105444
-0.054027
-0.013200
0.017269
0.037671
0.048700
0.051799
0.049039
0.042417
0.034825
0.025385
0.013287
-0.002597
-0.023557
-0.050347
-0.082222
-0.116381
-0.148401
-0.173466
-0.187799
-0.187160
-0.173820
-0.151730
-0.124496
-0.095386
-0.066958
-0.040947
-0.018340
0.000464
0.015466
0.026900
0.035101
0.040437
0.043306
0.044183
0.043637
0.042265
0.040569
0.038874
0.037257
0.035508
0.033294
0.030218
0.025875
0.019907
0.012073
0.002346
-0.008998
-0.021336
-0.033718
-0.044986
-0.053934
-0.059523
-0.061053
-0.058374
-0.051904
-0.042508
-0.031317
-0.019542
-0.008288
0.001580
0.009496
0.015191
0.018637
0.019980
0.019486
0.017484
0.014314
0.010271
0.004399
0.438491
0.439653
0.442781
0.447438
0.452729
0.457013
0.457474
0.449591
0.426613
0.379171
0.295008
0.158498
-0.049162
-0.306204
-0.339518
-0.316503
-0.306100
-0.316499
-0.349843
-0.403884
-0.468656
-0.524473
-0.543173
-0.528580
-0.486738
-0.426118
-0.355454
-0.282118
-0.211509
-0.147066
-0.090607
-0.042762
-0.003424
0.027817
0.051257
0.066865
0.074810
0.076095
0.072715
0.065109
0.053393
0.037484
0.016664
-0.009957
-0.042502
-0.079438
-0.117298
-0.151272
-0.176390
-0.188865
-0.184629
-0.168650
-0.144533
-0.116029
-0.086388
-0.058031
-0.032504
-0.010604
0.007432
0.021729
0.032608
0.040461
0.045680
0.048641
0.049741
0.049437
0.048235
0.046591
0.044840
0.043094
0.041164
0.038717
0.035348
0.030642
0.024236
0.015903
0.005640
-0.006239
-0.019072
-0.031874
-0.043454
-0.052583
-0.058203
-0.059574
-0.056749
-0.050140
-0.040623
-0.029364
-0.017616
-0.006525
0.003013
0.010419
0.015422
0.017999
0.018297
0.016561
0.013083
0.008145
0.001967
-0.007216
0.426019
0.426437
0.427445
0.428551
0.428818
0.426684
0.419716
0.404349
0.375713
0.327660
0.253163
0.145772
0.005150
-0.145457
-0.221085
-0.252000
-0.272079
-0.296859
-0.332078
-0.376667
-0.422407
-0.453959
-0.461826
-0.447064
-0.412237
-0.362833
-0.305027
-0.244338
-0.185016
-0.129923
-0.080698
-0.038042
-0.002027
0.027596
0.051133
0.068783
0.080683
0.088192
0.091346
0.086201
0.074400
0.056743
0.033007
0.002877
-0.033039
-0.072506
-0.111593
-0.145308
-0.168697
-0.178052
-0.170875
-0.153357
-0.128860
-0.100924
-0.072535
-0.045830
-0.022103
-0.001949
0.014529
0.027537
0.037434
0.044632
0.049524
0.052462
0.053780
0.053830
0.053003
0.051672
0.050174
0.048586
0.046754
0.044356
0.040980
0.036199
0.029645
0.021103
0.010599
-0.001519
-0.014550
-0.027480
-0.039099
-0.048175
-0.053658
-0.054814
-0.051877
-0.045271
-0.035893
-0.024927
-0.013642
-0.003184
0.005567
0.012062
0.016061
0.017561
0.016712
0.013734
0.008872
0.002341
-0.005732
-0.017884
0.412783
0.412589
0.411876
0.410169
0.406611
0.399857
0.387954
0.368262
0.337469
0.291850
0.227922
0.143947
0.043304
-0.060407
-0.136544
-0.187187
-0.224743
-0.258827
-0.294047
-0.330000
-0.361538
-0.380480
-0.384360
-0.371865
-0.344546
-0.305894
-0.260122
-0.211241
-0.162534
-0.116371
-0.074236
-0.036888
-0.004559
0.022839
0.045549
0.063854
0.078043
0.089238
0.094504
0.092642
0.083457
0.066969
0.043231
0.012613
-0.023555
-0.062483
-0.099972
-0.131067
-0.151263
-0.155540
-0.147260
-0.129927
-0.106865
-0.081254
-0.055664
-0.031879
-0.010929
0.006754
0.021155
0.032506
0.041165
0.047521
0.051947
0.054767
0.056267
0.056720
0.056412
0.055626
0.054654
0.053484
0.052002
0.049905
0.046779
0.042183
0.035750
0.027271
0.016799
0.004717
-0.008240
-0.021033
-0.032442
-0.041244
-0.046418
-0.047296
-0.044238
-0.037720
-0.028680
-0.018330
-0.007928
0.001426
0.008930
0.014122
0.016836
0.017111
0.015096
0.010982
0.004954
-0.002856
-0.012424
-0.026965
0.399897
0.399229
0.397197
0.393388
0.387080
0.377187
0.362226
0.340324
0.309330
0.267107
0.212119
0.144432
0.067278
-0.011591
-0.079558
-0.133834
-0.177830
-0.215786
-0.250161
-0.280774
-0.304957
-0.319104
-0.321599
-0.311730
-0.290534
-0.260331
-0.224049
-0.184624
-0.144593
-0.105903
-0.069871
-0.037255
-0.008378
0.016737
0.038241
0.056353
0.071602
0.083065
0.089467
0.089729
0.083118
0.069138
0.047667
0.019316
-0.014177
-0.049722
-0.083061
-0.109418
-0.124583
-0.126024
-0.117759
-0.102133
-0.081966
-0.059905
-0.038057
-0.017868
-0.000160
0.014743
0.026860
0.036416
0.043740
0.049183
0.053082
0.055729
0.057370
0.058220
0.058479
0.058426
0.058127
0.057568
0.056641
0.055052
0.052385
0.048194
0.042104
0.033917
0.023706
0.011886
-0.000776
-0.013218
-0.024212
-0.032554
-0.037265
-0.037752
-0.034500
-0.028078
-0.019503
-0.010030
-0.000894
0.006904
0.012716
0.016242
0.017440
0.016411
0.013305
0.008263
0.001399
-0.007244
-0.017741
-0.033817
0.388229
0.387207
0.384207
0.378899
0.370704
0.358787
0.342058
0.319226
0.288932
0.249999
0.201856
0.145118
0.082264
0.017907
-0.041866
-0.094115
-0.138952
-0.177621
-0.210977
-0.238759
-0.259615
-0.271823
-0.274227
-0.266665
-0.249998
-0.225917
-0.196574
-0.164192
-0.130777
-0.097935
-0.066817
-0.038137
-0.012255
0.010734
0.030895
0.048363
0.063249
0.074612
0.081624
0.083331
0.078877
0.067636
0.049442
0.024955
-0.004010
-0.034395
-0.062205
-0.083228
-0.094037
-0.094712
-0.087635
-0.074648
-0.058000
-0.039823
-0.021833
-0.005222
0.009323
0.021530
0.031427
0.039229
0.045238
0.049780
0.053154
0.055620
0.057385
0.058614
0.059447
0.060156
0.060569
0.060720
0.060474
0.059530
0.057469
0.053836
0.048252
0.040522
0.030738
0.019340
0.007128
-0.004811
-0.015240
-0.022962
-0.027027
-0.026991
-0.023425
-0.017038
-0.008980
-0.000573
0.006977
0.012817
0.016536
0.018081
0.017598
0.015269
0.011228
0.005549
-0.001740
-0.010675
-0.021408
-0.037883
0.378422
0.377137
0.373443
0.367100
0.357664
0.344504
0.326830
0.303760
0.274444
0.238256
0.195073
0.145610
0.091697
0.036278
-0.017154
-0.066181
-0.109806
-0.147846
-0.180204
-0.206437
-0.225723
-0.237112
-0.239865
-0.234114
-0.220656
-0.200847
-0.176385
-0.149048
-0.120474
-0.092016
-0.064680
-0.039122
-0.015701
0.005447
0.024320
0.040958
0.055211
0.066407
0.073870
0.076760
0.074242
0.065689
0.050957
0.030713
0.006689
-0.018325
-0.040872
-0.057565
-0.066100
-0.067166
-0.061731
-0.051361
-0.037888
-0.023068
-0.008349
0.005239
0.017085
0.026949
0.034870
0.041069
0.045855
0.049553
0.052446
0.054762
0.056669
0.058276
0.059740
0.061028
0.062123
0.062987
0.063451
0.063198
0.061799
0.058794
0.053796
0.046612
0.037344
0.026455
0.014774
0.003420
-0.006346
-0.013335
-0.016514
-0.015839
-0.011830
-0.005391
0.002163
0.009407
0.015162
0.018756
0.020080
0.019424
0.017182
0.013632
0.008873
0.002884
-0.004406
-0.013085
-0.023314
-0.038831
0.370958
0.369447
0.365243
0.358199
0.347978
0.334092
0.315960
0.292968
0.264573
0.230451
0.190680
0.145935
0.097608
0.047755
-0.001267
-0.047467
-0.089512
-0.126585
-0.158081
-0.183386
-0.201855
-0.212877
-0.216030
-0.211587
-0.200309
-0.183374
-0.162219
-0.138346
-0.113158
-0.087832
-0.063260
-0.040042
-0.018521
0.001152
0.018940
0.034828
0.048556
0.059640
0.067499
0.071382
0.070499
0.064247
0.052491
0.035862
0.015942
-0.004818
-0.023520
-0.037502
-0.045228
-0.046646
-0.042480
-0.034029
-0.022844
-0.010443
0.001894
0.013236
0.023026
0.031046
0.037354
0.042195
0.045908
0.048847
0.051313
0.053522
0.055616
0.057615
0.059537
0.061362
0.063071
0.064579
0.065690
0.066074
0.065298
0.062896
0.058474
0.051834
0.043083
0.032704
0.021557
0.010802
0.001742
-0.004397
-0.006637
-0.005256
-0.000743
0.005812
0.012926
0.019065
0.023050
0.024367
0.023234
0.020331
0.016362
0.011727
0.006471
0.000449
-0.006509
-0.014512
-0.023611
-0.036739
0.366253
0.364420
0.359788
0.352275
0.341585
0.327310
0.308989
0.286166
0.258469
0.225728
0.188103
0.146208
0.101176
0.054602
0.008324
-0.035923
-0.076723
-0.112987
-0.143857
-0.168606
-0.186620
-0.197456
-0.200917
-0.197327
-0.187423
-0.172285
-0.153200
-0.131514
-0.108486
-0.085183
-0.062424
-0.040772
-0.020555
-0.001933
0.015045
0.030375
0.043768
0.054836
0.063054
0.067705
0.068020
0.063394
0.053678
0.039459
0.022198
0.004106
-0.012287
-0.024721
-0.031895
-0.033489
-0.030082
-0.022803
-0.013032
-0.002141
0.008694
0.018606
0.027069
0.033877
0.039095
0.042976
0.045884
0.048206
0.050285
0.052371
0.054638
0.056901
0.059206
0.061504
0.063730
0.065764
0.067393
0.068287
0.068011
0.066096
0.062143
0.055947
0.047615
0.037646
0.026935
0.016690
0.008267
0.002971
0.001397
0.003341
0.008230
0.014868
0.021670
0.027017
0.029688
0.029238
0.026098
0.021279
0.015794
0.010206
0.004557
-0.001389
-0.007902
-0.015115
-0.022832
-0.032403
0.364911
0.362158
0.357119
0.349333
0.338420
0.323989
0.305628
0.282950
0.255660
0.223645
0.187089
0.146563
0.103074
0.058021
0.013031
-0.030270
-0.070445
-0.106302
-0.136876
-0.161388
-0.179266
-0.190084
-0.193740
-0.190597
-0.181381
-0.167122
-0.149034
-0.128385
-0.106365
-0.083992
-0.062053
-0.041097
-0.021458
-0.003310
0.013257
0.028130
0.041290
0.052427
0.060958
0.066137
0.067160
0.063386
0.054638
0.041483
0.025356
0.008395
-0.007031
-0.018956
-0.025942
-0.027634
-0.024597
-0.017879
-0.008768
0.001440
0.011624
0.020945
0.028888
0.035247
0.040075
0.043618
0.046232
0.048306
0.050188
0.052117
0.054155
0.056554
0.059137
0.061772
0.064351
0.066738
0.068709
0.069933
0.069973
0.068356
0.064669
0.058697
0.050543
0.040723
0.030171
0.020148
0.012019
0.006904
0.005475
0.007584
0.012547
0.019144
0.025798
0.030890
0.033181
0.032189
0.028339
0.022697
0.016402
0.010149
0.004067
-0.002075
-0.008501
-0.015204
-0.021958
-0.028094
