# vtk DataFile Version 3.0
Scalar Field
ASCII
DATASET RECTILINEAR_GRID
DIMENSIONS 100 26 1
X_COORDINATES 100 double
0.050000 0.150000 0.250000 0.350000 0.450000 0.550000 0.650000 0.750000 0.850000 0.950000 1.050000 1.150000 1.250000 1.350000 1.450000 1.550000 1.650000 1.750000 1.850000 1.950000 2.050000 2.150000 2.250000 2.350000 2.450000 2.550000 2.650000 2.750000 2.850000 2.950000 3.050000 3.150000 3.250000 3.350000 3.450000 3.550000 3.650000 3.750000 3.850000 3.950000 4.050000 4.150000 4.250000 4.350000 4.450000 4.550000 4.650000 4.750000 4.850000 4.950000 5.050000 5.150000 5.250000 5.350000 5.450000 5.550000 5.650000 5.750000 5.850000 5.950000 6.050000 6.150000 6.250000 6.350000 6.450000 6.550000 6.650000 6.750000 6.850000 6.950000 7.050000 7.150000 7.250000 7.350000 7.450000 7.550000 7.650000 7.750000 7.850000 7.950000 8.050000 8.150000 8.250000 8.350000 8.450000 8.550000 8.650000 8.750000 8.850000 8.950000 9.050000 9.150000 9.250000 9.350000 9.450000 9.550000 9.650000 9.750000 9.850000 9.950000 
Y_COORDINATES 26 double
0.050000 0.150000 0.250000 0.350000 0.450000 0.550000 0.650000 0.750000 0.850000 0.950000 1.050000 1.150000 1.250000 1.350000 1.450000 1.550000 1.650000 1.750000 1.850000 1.950000 2.050000 2.150000 2.250000 2.350000 2.450000 2.550000 
Z_COORDINATES 1 double
0.0
POINT_DATA 2600
SCALARS Skalarfeld double 1
LOOKUP_TABLE default
0.161773
0.157769
0.149235
0.135770
0.117158
0.093335
0.064479
0.031148
-0.005603
-0.044178
-0.082563
-0.118633
-0.150501
-0.176764
-0.196594
-0.209728
-0.216386
-0.217120
-0.212796
-0.204486
-0.193358
-0.180612
-0.167426
-0.154819
-0.143720
-0.134815
-0.128420
-0.124386
-0.122072
-0.120469
-0.118463
-0.114847
-0.108985
-0.100688
-0.090173
-0.077948
-0.064677
-0.051053
-0.037701
-0.025116
-0.013631
-0.003408
0.005543
0.013346
0.020214
0.026409
0.032181
0.037669
0.043163
0.048479
0.053194
0.056756
0.058574
0.058162
0.055293
0.050138
0.043304
0.035763
0.028614
0.022768
0.019012
0.017494
0.017900
0.019731
0.022414
0.025406
0.028261
0.030673
0.032479
0.033648
0.034260
0.034463
0.034442
0.034371
0.034387
0.034566
0.034931
0.035460
0.036110
0.036825
0.037606
0.038429
0.039281
0.040190
0.041199
0.042361
0.043727
0.045342
0.047248
0.049474
0.052043
0.054968
0.058255
0.061903
0.065903
0.070240
0.074891
0.079816
0.084945
0.091273
0.165356
0.162209
0.153890
0.140352
0.121416
0.096966
0.067110
0.032370
-0.006144
-0.046662
-0.086876
-0.124399
-0.157215
-0.183910
-0.203719
-0.216458
-0.222417
-0.222231
-0.216824
-0.207328
-0.194970
-0.181012
-0.166686
-0.153177
-0.141516
-0.132474
-0.126409
-0.123128
-0.121854
-0.121367
-0.120282
-0.117403
-0.111940
-0.103733
-0.093068
-0.080536
-0.066876
-0.052836
-0.039081
-0.026125
-0.014312
-0.003806
0.005386
0.013392
0.020430
0.026774
0.032704
0.038475
0.043987
0.049107
0.053497
0.056660
0.058057
0.057242
0.054011
0.048518
0.041339
0.033427
0.025948
0.020034
0.016267
0.014816
0.015382
0.017437
0.020374
0.023622
0.026720
0.029354
0.031361
0.032712
0.033492
0.033853
0.033982
0.034052
0.034194
0.034480
0.034927
0.035511
0.036193
0.036943
0.037704
0.038461
0.039241
0.040086
0.041039
0.042151
0.043474
0.045054
0.046930
0.049132
0.051682
0.054594
0.057873
0.061518
0.065524
0.069879
0.074568
0.079568
0.084854
0.091746
0.174658
0.171719
0.163486
0.149779
0.130279
0.104675
0.072865
0.035241
-0.007017
-0.051765
-0.095953
-0.136565
-0.171318
-0.198830
-0.218505
-0.230357
-0.234863
-0.232732
-0.225044
-0.213054
-0.198115
-0.181625
-0.164995
-0.149600
-0.136728
-0.127384
-0.122051
-0.120460
-0.121530
-0.123571
-0.124742
-0.123477
-0.118855
-0.110815
-0.099809
-0.086606
-0.072093
-0.057131
-0.042453
-0.028615
-0.015978
-0.004718
0.005155
0.013764
0.021321
0.028080
0.034294
0.040166
0.045681
0.050603
0.054602
0.057198
0.057890
0.056290
0.052232
0.045869
0.037759
0.028875
0.020480
0.013861
0.009913
0.008610
0.009549
0.012129
0.015671
0.019552
0.023277
0.026516
0.029099
0.030997
0.032285
0.033111
0.033646
0.034050
0.034443
0.034894
0.035420
0.036007
0.036629
0.037261
0.037886
0.038509
0.039161
0.039880
0.040720
0.041733
0.042972
0.044480
0.046297
0.048452
0.050966
0.053851
0.057114
0.060754
0.064768
0.069150
0.073896
0.078999
0.084461
0.091657
0.189279
0.186423
0.178260
0.164403
0.144240
0.117069
0.082348
0.040119
-0.008420
-0.060523
-0.111457
-0.156994
-0.194556
-0.223006
-0.242139
-0.252334
-0.254351
-0.249038
-0.237715
-0.221790
-0.202784
-0.182284
-0.161918
-0.143414
-0.128513
-0.118683
-0.114691
-0.116161
-0.121450
-0.127962
-0.132873
-0.134074
-0.130596
-0.122593
-0.110833
-0.096395
-0.080417
-0.063928
-0.047762
-0.032528
-0.018612
-0.006198
0.004694
0.014174
0.022438
0.029723
0.036265
0.042256
0.047808
0.052589
0.056203
0.058161
0.058005
0.055432
0.050333
0.042863
0.033540
0.023310
0.013502
0.005595
0.000859
-0.000308
0.001154
0.004508
0.008958
0.013792
0.018465
0.022616
0.026061
0.028761
0.030783
0.032257
0.033337
0.034166
0.034856
0.035476
0.036059
0.036611
0.037129
0.037610
0.038062
0.038506
0.038980
0.039531
0.040214
0.041084
0.042195
0.043596
0.045326
0.047413
0.049875
0.052725
0.055965
0.059598
0.063620
0.068033
0.072839
0.078045
0.083664
0.091105
0.209062
0.206332
0.198425
0.184692
0.164081
0.135226
0.096731
0.047811
-0.010597
-0.075045
-0.136655
-0.189090
-0.229897
-0.258828
-0.276480
-0.283811
-0.281864
-0.271879
-0.255314
-0.233757
-0.208942
-0.182695
-0.156884
-0.133647
-0.115559
-0.104945
-0.103175
-0.109747
-0.122068
-0.135968
-0.146812
-0.151342
-0.149090
-0.140630
-0.127307
-0.110722
-0.092394
-0.073584
-0.055251
-0.038055
-0.022396
-0.008463
0.003729
0.014287
0.023403
0.031311
0.038245
0.044385
0.049842
0.054520
0.057754
0.059043
0.057990
0.054439
0.048394
0.040031
0.029794
0.018510
0.007411
-0.002015
-0.008389
-0.010329
-0.008452
-0.004322
0.001120
0.007046
0.012828
0.018055
0.022513
0.026144
0.029001
0.031197
0.032871
0.034155
0.035158
0.035956
0.036600
0.037117
0.037530
0.037857
0.038125
0.038370
0.038639
0.038986
0.039474
0.040163
0.041112
0.042374
0.043991
0.045991
0.048389
0.051194
0.054407
0.058028
0.062055
0.066492
0.071351
0.076649
0.082413
0.090114
0.233769
0.231314
0.224091
0.211152
0.190856
0.160818
0.118089
0.059989
-0.013771
-0.099786
-0.177687
-0.238320
-0.281439
-0.309242
-0.323654
-0.326285
-0.318608
-0.302197
-0.278522
-0.249366
-0.216734
-0.182777
-0.149708
-0.119691
-0.096664
-0.084510
-0.085801
-0.099884
-0.122776
-0.148012
-0.168211
-0.177286
-0.176104
-0.166311
-0.150244
-0.130309
-0.108545
-0.086498
-0.065247
-0.045489
-0.027620
-0.011808
0.001949
0.013774
0.023873
0.032486
0.039836
0.046048
0.051068
0.055279
0.057943
0.058398
0.056276
0.051729
0.045002
0.036347
0.026107
0.014868
0.003574
-0.006503
-0.014010
-0.017933
-0.016717
-0.012316
-0.006270
0.000481
0.007201
0.013402
0.018816
0.023346
0.027016
0.029916
0.032169
0.033898
0.035210
0.036192
0.036907
0.037405
0.037726
0.037907
0.037992
0.038027
0.038071
0.038188
0.038448
0.038922
0.039677
0.040772
0.042253
0.044152
0.046475
0.049230
0.052413
0.056018
0.060042
0.064491
0.069384
0.074753
0.080642
0.088620
0.262890
0.260954
0.255120
0.244165
0.225803
0.196272
0.150012
0.080183
-0.017997
-0.144777
-0.245454
-0.311704
-0.352736
-0.376028
-0.384673
-0.380394
-0.365509
-0.340931
-0.308205
-0.269386
-0.226839
-0.183166
-0.141136
-0.103156
-0.072653
-0.057138
-0.061415
-0.084331
-0.120081
-0.159812
-0.193194
-0.210850
-0.210454
-0.198504
-0.178657
-0.154392
-0.128366
-0.102411
-0.077704
-0.054952
-0.034526
-0.016564
-0.001037
0.012201
0.023371
0.032717
0.040430
0.046561
0.050942
0.053165
0.054074
0.053329
0.049734
0.044185
0.037328
0.029418
0.020547
0.010926
0.001088
-0.008073
-0.015437
-0.019949
-0.020957
-0.017243
-0.011374
-0.004457
0.002670
0.009435
0.015497
0.020701
0.025020
0.028508
0.031260
0.033381
0.034975
0.036130
0.036921
0.037409
0.037649
0.037693
0.037595
0.037412
0.037212
0.037071
0.037073
0.037299
0.037830
0.038733
0.040059
0.041844
0.044091
0.046798
0.049953
0.053540
0.057551
0.061992
0.066888
0.072288
0.078261
0.086493
0.295470
0.294367
0.290867
0.283638
0.269950
0.244656
0.198474
0.116155
-0.023049
-0.233517
-0.356105
-0.412183
-0.440438
-0.454859
-0.455887
-0.444738
-0.422108
-0.388280
-0.345129
-0.295157
-0.241172
-0.186339
-0.134275
-0.089070
-0.051216
-0.029279
-0.034937
-0.065006
-0.111208
-0.163123
-0.209457
-0.239901
-0.243482
-0.230159
-0.207003
-0.178844
-0.148967
-0.119444
-0.091525
-0.065930
-0.043028
-0.022953
-0.005673
0.008958
0.021150
0.031107
0.038913
0.044448
0.047399
0.047408
0.044485
0.040080
0.034956
0.029270
0.023568
0.017817
0.011781
0.005302
-0.001510
-0.008190
-0.013965
-0.017954
-0.019452
-0.017963
-0.012967
-0.006637
0.000195
0.006918
0.013136
0.018628
0.023304
0.027165
0.030262
0.032674
0.034485
0.035777
0.036626
0.037099
0.037259
0.037164
0.036874
0.036457
0.035990
0.035560
0.035267
0.035210
0.035487
0.036175
0.037335
0.039002
0.041182
0.043857
0.046996
0.050569
0.054557
0.058962
0.063816
0.069181
0.075157
0.083536
0.329986
0.330034
0.329870
0.328404
0.323143
0.308561
0.272178
0.185587
-0.023265
-0.423316
-0.521640
-0.521552
-0.522384
-0.527822
-0.525609
-0.512058
-0.483555
-0.441420
-0.388602
-0.328291
-0.263720
-0.198592
-0.137310
-0.085477
-0.049298
-0.024405
-0.030322
-0.061091
-0.107352
-0.160082
-0.209416
-0.245450
-0.261111
-0.249332
-0.225691
-0.196321
-0.164955
-0.133810
-0.104203
-0.076917
-0.052394
-0.030841
-0.012293
0.003330
0.016148
0.026164
0.033094
0.036451
0.035981
0.032067
0.025771
0.018454
0.012350
0.007849
0.004641
0.002255
0.000150
-0.002140
-0.004866
-0.007961
-0.011023
-0.013419
-0.014488
-0.013774
-0.010774
-0.005612
0.000294
0.006368
0.012197
0.017518
0.022183
0.026130
0.029359
0.031906
0.033827
0.035185
0.036046
0.036475
0.036533
0.036278
0.035774
0.035091
0.034317
0.033555
0.032924
0.032547
0.032541
0.033003
0.034000
0.035563
0.037707
0.040383
0.043532
0.047099
0.051051
0.055384
0.060130
0.065364
0.071211
0.079515
0.364341
0.365744
0.369605
0.375514
0.382287
0.386518
0.378059
0.324288
0.078730
-0.774106
-0.709352
-0.583564
-0.559362
-0.563689
-0.572529
-0.564092
-0.534600
-0.489087
-0.432008
-0.367244
-0.298512
-0.230806
-0.169042
-0.118491
-0.083336
-0.069322
-0.072193
-0.091718
-0.123730
-0.162685
-0.201630
-0.232768
-0.249808
-0.247628
-0.227143
-0.200335
-0.170993
-0.141287
-0.112550
-0.085655
-0.061190
-0.039530
-0.020885
-0.005366
0.006872
0.015436
0.019657
0.019038
0.013979
0.006040
-0.002655
-0.010378
-0.015381
-0.017344
-0.017041
-0.015292
-0.012891
-0.010538
-0.008745
-0.007760
-0.007512
-0.007632
-0.007577
-0.006810
-0.004958
-0.001609
0.002978
0.007936
0.012914
0.017636
0.021917
0.025641
0.028754
0.031244
0.033130
0.034446
0.035241
0.035565
0.035469
0.035007
0.034238
0.033236
0.032098
0.030947
0.029927
0.029194
0.028893
0.029138
0.029997
0.031514
0.033683
0.036410
0.039596
0.043162
0.047054
0.051260
0.055810
0.060785
0.066324
0.074223
0.396079
0.398798
0.406618
0.420020
0.439799
0.466900
0.501596
0.539478
0.618349
-0.077878
-0.635946
-0.562540
-0.558164
-0.561861
-0.576942
-0.577574
-0.552984
-0.512591
-0.461411
-0.403762
-0.343225
-0.287302
-0.238524
-0.201052
-0.176498
-0.165172
-0.156261
-0.154534
-0.161772
-0.176048
-0.193997
-0.210670
-0.220917
-0.221326
-0.209625
-0.188411
-0.164218
-0.138962
-0.113847
-0.089792
-0.067538
-0.047677
-0.030667
-0.016918
-0.006957
-0.001577
-0.001588
-0.007013
-0.016377
-0.027058
-0.036486
-0.043067
-0.045360
-0.043686
-0.039115
-0.032758
-0.025638
-0.018624
-0.012391
-0.007376
-0.003741
-0.001343
0.000215
0.001466
0.002916
0.004922
0.007876
0.011459
0.015274
0.019075
0.022660
0.025879
0.028631
0.030860
0.032543
0.033684
0.034302
0.034429
0.034097
0.033349
0.032237
0.030837
0.029259
0.027654
0.026202
0.025097
0.024515
0.024588
0.025377
0.026948
0.029217
0.032042
0.035286
0.038837
0.042625
0.046627
0.050868
0.055428
0.060446
0.067545
0.422824
0.426528
0.437296
0.456211
0.485375
0.528491
0.592086
0.687423
0.820687
0.859245
0.000000
-0.558173
-0.553805
-0.546958
-0.549575
-0.549265
-0.532410
-0.502377
-0.464956
-0.425729
-0.390006
-0.360469
-0.336413
-0.315917
-0.298203
-0.278447
-0.254309
-0.230248
-0.210134
-0.196321
-0.188926
-0.186207
-0.184953
-0.181840
-0.174801
-0.161970
-0.144612
-0.125856
-0.106522
-0.087454
-0.069486
-0.053397
-0.039895
-0.029708
-0.023748
-0.023080
-0.028321
-0.038643
-0.051513
-0.063711
-0.072666
-0.077008
-0.075485
-0.069312
-0.059881
-0.048605
-0.036731
-0.025266
-0.014962
-0.006325
0.000385
0.005172
0.008306
0.010268
0.011624
0.012884
0.014410
0.016555
0.019078
0.021772
0.024448
0.026944
0.029128
0.030907
0.032220
0.033038
0.033351
0.033164
0.032488
0.031350
0.029794
0.027902
0.025806
0.023693
0.021789
0.020330
0.019521
0.019500
0.020324
0.022064
0.024502
0.027452
0.030744
0.034240
0.037854
0.041551
0.045348
0.049319
0.053586
0.059489
0.442800
0.446963
0.459042
0.480167
0.512384
0.558807
0.623195
0.707206
0.804839
0.897804
0.816716
0.000000
-0.538045
-0.522284
-0.507101
-0.496334
-0.483216
-0.465516
-0.448388
-0.437187
-0.434471
-0.438384
-0.442498
-0.437404
-0.419707
-0.386007
-0.344075
-0.297613
-0.252874
-0.213988
-0.183246
-0.161287
-0.146967
-0.137754
-0.130768
-0.123709
-0.114037
-0.102633
-0.090225
-0.077513
-0.065337
-0.054585
-0.046171
-0.041133
-0.040716
-0.046047
-0.057202
-0.072360
-0.088171
-0.101184
-0.109029
-0.110154
-0.104122
-0.092867
-0.078205
-0.061883
-0.045371
-0.029787
-0.015906
-0.004211
0.005055
0.011865
0.016422
0.019143
0.020592
0.021359
0.021925
0.022734
0.024019
0.025553
0.027216
0.028855
0.030323
0.031502
0.032300
0.032658
0.032535
0.031909
0.030768
0.029122
0.027014
0.024539
0.021861
0.019213
0.016872
0.015115
0.014161
0.014128
0.015173
0.017138
0.019769
0.022836
0.026134
0.029505
0.032850
0.036122
0.039330
0.042530
0.045826
0.050168
0.455185
0.459262
0.471003
0.491192
0.521068
0.562152
0.615809
0.681401
0.746848
0.772033
0.735628
0.624397
0.000000
-0.493913
-0.465542
-0.440086
-0.427272
-0.420019
-0.422452
-0.439262
-0.469339
-0.505216
-0.534648
-0.543372
-0.517318
-0.468722
-0.407641
-0.341582
-0.277237
-0.219467
-0.171284
-0.134213
-0.108370
-0.092361
-0.083534
-0.078810
-0.075601
-0.070994
-0.065534
-0.059574
-0.053865
-0.049346
-0.047114
-0.048502
-0.054962
-0.067384
-0.085027
-0.105091
-0.123647
-0.137176
-0.143581
-0.140586
-0.129659
-0.113065
-0.093134
-0.071946
-0.051160
-0.031961
-0.015099
-0.000974
0.010263
0.018641
0.024356
0.027776
0.029430
0.029930
0.029864
0.029718
0.029779
0.030187
0.030829
0.031563
0.032240
0.032724
0.032902
0.032688
0.032015
0.030833
0.029111
0.026847
0.024088
0.020957
0.017659
0.014481
0.011750
0.009773
0.008777
0.008875
0.010217
0.012436
0.015249
0.018386
0.021616
0.024767
0.027728
0.030447
0.032919
0.035183
0.037312
0.039780
0.460138
0.463705
0.473893
0.491139
0.516012
0.548809
0.588430
0.630117
0.661160
0.655492
0.595203
0.513165
0.354099
0.000000
-0.425898
-0.386253
-0.378995
-0.378057
-0.393502
-0.431046
-0.488393
-0.552256
-0.600255
-0.610873
-0.573890
-0.512602
-0.437315
-0.357255
-0.279772
-0.209968
-0.150901
-0.104101
-0.069981
-0.047906
-0.036070
-0.031649
-0.031594
-0.032890
-0.033577
-0.033891
-0.034538
-0.036526
-0.041141
-0.049938
-0.064336
-0.084658
-0.109180
-0.134227
-0.155448
-0.169245
-0.173615
-0.166265
-0.150252
-0.128463
-0.103669
-0.078217
-0.053876
-0.031826
-0.012738
0.003112
0.015706
0.025178
0.031762
0.035795
0.037741
0.038171
0.037688
0.036816
0.035954
0.035400
0.035105
0.034970
0.034853
0.034610
0.034114
0.033258
0.031949
0.030118
0.027716
0.024742
0.021259
0.017424
0.013498
0.009823
0.006767
0.004656
0.003688
0.004085
0.005749
0.008209
0.011150
0.014273
0.017332
0.020147
0.022605
0.024645
0.026252
0.027441
0.028250
0.028602
0.458600
0.461443
0.469472
0.482709
0.500985
0.523455
0.547672
0.568030
0.573684
0.547025
0.470556
0.335832
0.195033
-0.205263
-0.410106
-0.351279
-0.339315
-0.339006
-0.364256
-0.417618
-0.492132
-0.570071
-0.625225
-0.624325
-0.583206
-0.515567
-0.433707
-0.347699
-0.264966
-0.190346
-0.126551
-0.074820
-0.035522
-0.008431
0.007384
0.013782
0.013453
0.009096
0.003671
-0.001760
-0.008094
-0.016442
-0.028225
-0.045025
-0.067906
-0.096351
-0.127651
-0.157438
-0.181052
-0.194811
-0.196696
-0.184650
-0.163865
-0.137575
-0.108854
-0.080200
-0.053395
-0.029537
-0.009161
0.007605
0.020894
0.030962
0.038111
0.042666
0.045008
0.045611
0.045020
0.043776
0.042330
0.040940
0.039849
0.038948
0.038099
0.037156
0.035983
0.034455
0.032464
0.029921
0.026773
0.023026
0.018775
0.014225
0.009694
0.005578
0.002280
0.000130
-0.000675
0.000145
0.002057
0.004679
0.007644
0.010633
0.013395
0.015750
0.017587
0.018841
0.019483
0.019505
0.018904
0.016987
0.451880
0.453878
0.459422
0.468240
0.479672
0.492265
0.503110
0.506896
0.494854
0.453939
0.367259
0.212421
-0.057449
-0.605560
-0.468933
-0.352127
-0.316557
-0.317127
-0.349367
-0.408767
-0.485462
-0.560848
-0.604536
-0.594378
-0.550382
-0.482911
-0.402980
-0.319756
-0.239867
-0.167496
-0.104851
-0.052763
-0.011334
0.019527
0.039987
0.050709
0.053193
0.049576
0.042187
0.033544
0.022621
0.008427
-0.010356
-0.035033
-0.066011
-0.101846
-0.139001
-0.172631
-0.197897
-0.211291
-0.208814
-0.193142
-0.168703
-0.139244
-0.108057
-0.077671
-0.049783
-0.025347
-0.004735
0.012080
0.025367
0.035499
0.042855
0.047777
0.050579
0.051609
0.051278
0.050044
0.048326
0.046469
0.044827
0.043330
0.041864
0.040297
0.038489
0.036304
0.033619
0.030338
0.026412
0.021870
0.016849
0.011612
0.006537
0.002067
-0.001377
-0.003494
-0.003934
-0.002768
-0.000661
0.002005
0.004851
0.007557
0.009880
0.011652
0.012767
0.013159
0.012786
0.011611
0.009586
0.005372
0.441516
0.442677
0.445803
0.450455
0.455740
0.460015
0.460464
0.452565
0.429567
0.382102
0.297913
0.161380
-0.046277
-0.303229
-0.336416
-0.313418
-0.303194
-0.313811
-0.347287
-0.401376
-0.466284
-0.522631
-0.542007
-0.528045
-0.486703
-0.426375
-0.355757
-0.282224
-0.211201
-0.146174
-0.089013
-0.040408
-0.000315
0.031590
0.055476
0.071165
0.078792
0.079357
0.075300
0.066227
0.052342
0.033445
0.008726
-0.022551
-0.059996
-0.101337
-0.142450
-0.178194
-0.203600
-0.215142
-0.208878
-0.190498
-0.163940
-0.133104
-0.101278
-0.070872
-0.043408
-0.019656
0.000171
0.016228
0.028874
0.038556
0.045716
0.050729
0.053895
0.055466
0.055706
0.054922
0.053431
0.051574
0.049718
0.047856
0.045939
0.043866
0.041505
0.038715
0.035366
0.031362
0.026673
0.021363
0.015624
0.009783
0.004274
-0.000424
-0.003878
-0.005780
-0.005722
-0.004402
-0.002263
0.000271
0.002817
0.005074
0.006818
0.007900
0.008223
0.007721
0.006338
0.004008
0.000638
-0.005749
0.429034
0.429451
0.430457
0.431558
0.431819
0.429678
0.422699
0.407318
0.378666
0.330593
0.256074
0.148660
0.008024
-0.142562
-0.218164
-0.249119
-0.269320
-0.294260
-0.329634
-0.374389
-0.420399
-0.452510
-0.460796
-0.446451
-0.411937
-0.362678
-0.304823
-0.243890
-0.184150
-0.128497
-0.078612
-0.035239
0.001498
0.031786
0.055848
0.073791
0.085644
0.093582
0.095530
0.088478
0.074013
0.052789
0.024581
-0.010640
-0.051692
-0.095651
-0.138031
-0.173573
-0.197324
-0.205773
-0.196681
-0.176919
-0.150101
-0.119903
-0.089363
-0.060628
-0.034985
-0.013020
0.005184
0.019855
0.031390
0.040248
0.046878
0.051672
0.054935
0.056897
0.057737
0.057620
0.056717
0.055573
0.053941
0.052034
0.049910
0.047519
0.044746
0.041454
0.037519
0.032862
0.027482
0.021497
0.015161
0.008864
0.003092
-0.001664
-0.005020
-0.006398
-0.006069
-0.004711
-0.002732
-0.000543
0.001508
0.003149
0.004191
0.004506
0.004011
0.002637
0.000315
-0.003052
-0.007598
-0.015865
0.415789
0.415594
0.414878
0.413168
0.409605
0.402843
0.390931
0.371227
0.340419
0.294782
0.230832
0.146831
0.046160
-0.057573
-0.133742
-0.184449
-0.222118
-0.256353
-0.291754
-0.327935
-0.359793
-0.379072
-0.383283
-0.371080
-0.343963
-0.305383
-0.259533
-0.210421
-0.161345
-0.114697
-0.071991
-0.034019
-0.001054
0.026949
0.050177
0.068856
0.083524
0.094484
0.098670
0.094876
0.082848
0.062590
0.034269
-0.001401
-0.042537
-0.085753
-0.126398
-0.159298
-0.179964
-0.183381
-0.173580
-0.154358
-0.129259
-0.101593
-0.073996
-0.048285
-0.025505
-0.006093
0.009944
0.022854
0.033021
0.040873
0.046828
0.051251
0.054437
0.056599
0.057876
0.058350
0.058450
0.057941
0.056820
0.055225
0.053215
0.050764
0.047783
0.044153
0.039774
0.034599
0.028676
0.022187
0.015454
0.008931
0.003135
-0.001445
-0.004400
-0.005274
-0.004935
-0.003772
-0.002193
-0.000569
0.000797
0.001685
0.001939
0.001459
0.000169
-0.002000
-0.005133
-0.009349
-0.014819
-0.024518
0.402896
0.402227
0.400193
0.396380
0.390067
0.380167
0.365197
0.343284
0.312276
0.270035
0.215024
0.147307
0.070117
-0.008797
-0.076824
-0.131184
-0.175297
-0.213405
-0.247965
-0.278802
-0.303253
-0.317664
-0.320418
-0.310765
-0.289712
-0.259551
-0.223194
-0.183575
-0.143240
-0.104151
-0.067647
-0.034513
-0.005100
0.020535
0.042505
0.060987
0.076482
0.087577
0.092916
0.091302
0.081926
0.064304
0.038485
0.005433
-0.032623
-0.072098
-0.108368
-0.136480
-0.152228
-0.153161
-0.143811
-0.126722
-0.104879
-0.081044
-0.057403
-0.035448
-0.016033
0.000498
0.014159
0.025181
0.033905
0.040711
0.045963
0.049987
0.053045
0.055326
0.056944
0.058113
0.058768
0.058807
0.058253
0.057142
0.055472
0.053193
0.050218
0.046451
0.041821
0.036330
0.030088
0.023347
0.016501
0.010047
0.004506
0.000308
-0.001860
-0.002709
-0.002583
-0.001862
-0.000913
-0.000047
0.000495
0.000544
-0.000017
-0.001270
-0.003281
-0.006123
-0.009890
-0.014717
-0.020798
-0.031362
0.391221
0.390199
0.387197
0.381885
0.373686
0.361762
0.345025
0.322182
0.291873
0.252921
0.204753
0.147983
0.085086
0.020673
-0.039171
-0.091515
-0.136473
-0.175291
-0.208824
-0.236811
-0.257890
-0.270325
-0.272941
-0.265553
-0.248997
-0.224948
-0.195545
-0.163011
-0.129355
-0.096194
-0.064697
-0.035598
-0.009279
0.014134
0.034675
0.052434
0.067334
0.078264
0.084243
0.084192
0.077184
0.062617
0.040493
0.011790
-0.021261
-0.055200
-0.085734
-0.108500
-0.120067
-0.120641
-0.112920
-0.098892
-0.080940
-0.061297
-0.041756
-0.023562
-0.007444
0.006297
0.017666
0.026867
0.034200
0.040002
0.044590
0.048243
0.051185
0.053577
0.055521
0.057101
0.058171
0.058703
0.058668
0.058039
0.056766
0.054767
0.051948
0.048221
0.043547
0.037979
0.031691
0.025005
0.018367
0.012292
0.007248
0.003823
0.001824
0.000814
0.000511
0.000587
0.000744
0.000739
0.000397
-0.000406
-0.001752
-0.003704
-0.006325
-0.009687
-0.013889
-0.019065
-0.025412
-0.036204
0.381409
0.380124
0.376429
0.370082
0.360642
0.347475
0.329792
0.306711
0.277380
0.241172
0.197964
0.148465
0.094506
0.039026
-0.014484
-0.063609
-0.107356
-0.145541
-0.178067
-0.204486
-0.223969
-0.235559
-0.238494
-0.232892
-0.219529
-0.199752
-0.175249
-0.147796
-0.119034
-0.090326
-0.062690
-0.036797
-0.013029
0.008452
0.027610
0.044438
0.058585
0.069311
0.075796
0.077082
0.072269
0.060754
0.042539
0.018558
-0.009118
-0.037371
-0.062493
-0.080968
-0.090416
-0.091746
-0.086050
-0.075014
-0.060578
-0.044583
-0.028546
-0.013550
-0.000247
0.011083
0.020440
0.028012
0.034084
0.038968
0.042957
0.046294
0.049161
0.051677
0.053904
0.055768
0.057220
0.058196
0.058625
0.058434
0.057537
0.055837
0.053235
0.049660
0.045106
0.039671
0.033586
0.027222
0.021049
0.015551
0.011189
0.008087
0.005972
0.004618
0.003752
0.003099
0.002424
0.001548
0.000352
-0.001243
-0.003289
-0.005836
-0.008936
-0.012662
-0.017104
-0.022382
-0.028656
-0.039000
0.373942
0.372430
0.368224
0.361178
0.350951
0.337060
0.318920
0.295916
0.267505
0.233363
0.193565
0.148782
0.100407
0.050491
0.001388
-0.044911
-0.087077
-0.124292
-0.155948
-0.181427
-0.200077
-0.211282
-0.214599
-0.210289
-0.199099
-0.182199
-0.161018
-0.137059
-0.111726
-0.086203
-0.061393
-0.037909
-0.016113
0.003819
0.021813
0.037801
0.051371
0.061981
0.068929
0.071356
0.068414
0.059518
0.044652
0.024670
0.001436
-0.022322
-0.043490
-0.059276
-0.068105
-0.070049
-0.065915
-0.057092
-0.045219
-0.031882
-0.018419
-0.005806
0.005358
0.014811
0.022560
0.028791
0.033793
0.037880
0.041343
0.044410
0.047241
0.049914
0.052346
0.054503
0.056319
0.057701
0.058543
0.058740
0.058182
0.056760
0.054383
0.051001
0.046643
0.041449
0.035688
0.029750
0.024095
0.019148
0.015137
0.012052
0.009757
0.008032
0.006625
0.005305
0.003888
0.002249
0.000316
-0.001949
-0.004573
-0.007588
-0.011041
-0.014996
-0.019529
-0.024725
-0.030668
-0.039853
0.369234
0.367401
0.362767
0.355252
0.344556
0.330275
0.311946
0.289111
0.261398
0.228637
0.190983
0.149050
0.103969
0.057331
0.010972
-0.033376
-0.074295
-0.110698
-0.141724
-0.166641
-0.184828
-0.195833
-0.199448
-0.195981
-0.186163
-0.171062
-0.151964
-0.130212
-0.107067
-0.083604
-0.060651
-0.038781
-0.018342
0.000484
0.017613
0.033000
0.046210
0.056818
0.064183
0.067493
0.065919
0.058868
0.046294
0.028977
0.008623
-0.012311
-0.031100
-0.045365
-0.053773
-0.056063
-0.052878
-0.045422
-0.035146
-0.023480
-0.011649
-0.000561
0.009219
0.017443
0.024118
0.029430
0.033666
0.037147
0.040170
0.042978
0.045757
0.048507
0.051131
0.053574
0.055722
0.057450
0.058630
0.059135
0.058839
0.057632
0.055428
0.052201
0.048011
0.043030
0.037543
0.031937
0.026665
0.021989
0.018101
0.015005
0.012561
0.010553
0.008752
0.006953
0.005006
0.002822
0.000363
-0.002381
-0.005418
-0.008764
-0.012457
-0.016552
-0.021109
-0.026176
-0.031747
-0.039270
0.367892
0.365138
0.360097
0.352308
0.341391
0.326953
0.308584
0.285894
0.258588
0.226553
0.189968
0.149404
0.105865
0.060747
0.015677
-0.027725
-0.068020
-0.104015
-0.134742
-0.159419
-0.177463
-0.188447
-0.192250
-0.189227
-0.180094
-0.165874
-0.147778
-0.127071
-0.104949
-0.082432
-0.060319
-0.039169
-0.019334
-0.001014
0.015665
0.030532
0.043549
0.054257
0.061983
0.065887
0.065109
0.059016
0.047526
0.031387
0.012264
-0.007471
-0.025262
-0.039026
-0.047311
-0.049776
-0.047048
-0.040242
-0.030710
-0.019803
-0.008688
0.001757
0.010979
0.018728
0.025002
0.029978
0.033932
0.037178
0.040009
0.042653
0.045229
0.047838
0.050574
0.053221
0.055600
0.057555
0.058942
0.059621
0.059461
0.058345
0.056198
0.053006
0.048853
0.043937
0.038556
0.033068
0.027795
0.023145
0.019310
0.016226
0.013741
0.011645
0.009713
0.007752
0.005621
0.003240
0.000580
-0.002362
-0.005581
-0.009088
-0.012912
-0.017098
-0.021694
-0.026731
-0.032194
-0.038835
