# vtk DataFile Version 3.0
Scalar Field
ASCII
DATASET RECTILINEAR_GRID
DIMENSIONS 100 26 1
X_COORDINATES 100 double
0.050000 0.150000 0.250000 0.350000 0.450000 0.550000 0.650000 0.750000 0.850000 0.950000 1.050000 1.150000 1.250000 1.350000 1.450000 1.550000 1.650000 1.750000 1.850000 1.950000 2.050000 2.150000 2.250000 2.350000 2.450000 2.550000 2.650000 2.750000 2.850000 2.950000 3.050000 3.150000 3.250000 3.350000 3.450000 3.550000 3.650000 3.750000 3.850000 3.950000 4.050000 4.150000 4.250000 4.350000 4.450000 4.550000 4.650000 4.750000 4.850000 4.950000 5.050000 5.150000 5.250000 5.350000 5.450000 5.550000 5.650000 5.750000 5.850000 5.950000 6.050000 6.150000 6.250000 6.350000 6.450000 6.550000 6.650000 6.750000 6.850000 6.950000 7.050000 7.150000 7.250000 7.350000 7.450000 7.550000 7.650000 7.750000 7.850000 7.950000 8.050000 8.150000 8.250000 8.350000 8.450000 8.550000 8.650000 8.750000 8.850000 8.950000 9.050000 9.150000 9.250000 9.350000 9.450000 9.550000 9.650000 9.750000 9.850000 9.950000 
Y_COORDINATES 26 double
0.050000 0.150000 0.250000 0.350000 0.450000 0.550000 0.650000 0.750000 0.850000 0.950000 1.050000 1.150000 1.250000 1.350000 1.450000 1.550000 1.650000 1.750000 1.850000 1.950000 2.050000 2.150000 2.250000 2.350000 2.450000 2.550000 
Z_COORDINATES 1 double
0.0
POINT_DATA 2600
SCALARS Skalarfeld double 1
LOOKUP_TABLE default
0.162822
0.158778
0.150106
0.136388
0.117374
0.092951
0.063236
0.028714
-0.009626
-0.050233
-0.091090
-0.130011
-0.164983
-0.194413
-0.217236
-0.232927
-0.241393
-0.242918
-0.238204
-0.228183
-0.213932
-0.196590
-0.177296
-0.157137
-0.137126
-0.118192
-0.101152
-0.086633
-0.075223
-0.067241
-0.062613
-0.060781
-0.060731
-0.061195
-0.060974
-0.058881
-0.054482
-0.047789
-0.039174
-0.029224
-0.018608
-0.007965
0.002166
0.011393
0.019484
0.026370
0.032124
0.036945
0.041116
0.044969
0.048812
0.052819
0.057361
0.062256
0.067203
0.071799
0.075543
0.077865
0.078190
0.076055
0.071298
0.064250
0.055822
0.047365
0.040290
0.035703
0.034178
0.035362
0.038545
0.042817
0.047272
0.051184
0.054130
0.056041
0.057167
0.057968
0.058948
0.060480
0.062692
0.065489
0.068880
0.072593
0.076563
0.080864
0.085641
0.091046
0.097193
0.104117
0.111758
0.119966
0.128535
0.137262
0.146021
0.154829
0.163883
0.173539
0.184194
0.196076
0.208937
0.224422
0.166495
0.163310
0.154857
0.141070
0.121739
0.096698
0.065990
0.030066
-0.010038
-0.052603
-0.095325
-0.135766
-0.171795
-0.201823
-0.224848
-0.240401
-0.248455
-0.249327
-0.243761
-0.232735
-0.217372
-0.198864
-0.178396
-0.157103
-0.136037
-0.116155
-0.098330
-0.083401
-0.071982
-0.064411
-0.060583
-0.059837
-0.060990
-0.062563
-0.063119
-0.061579
-0.057404
-0.050674
-0.041842
-0.031574
-0.020602
-0.009605
0.000854
0.010373
0.018719
0.025822
0.031761
0.036738
0.041038
0.044996
0.048941
0.053168
0.057572
0.062140
0.066655
0.070773
0.074052
0.075978
0.076011
0.073692
0.068822
0.061654
0.053007
0.044203
0.036811
0.032148
0.030564
0.031798
0.035149
0.039677
0.044441
0.048687
0.051982
0.054252
0.055750
0.056932
0.058277
0.060128
0.062611
0.065652
0.068905
0.072386
0.076087
0.080112
0.084615
0.089759
0.095660
0.102353
0.109781
0.117795
0.126197
0.134796
0.143480
0.152275
0.161383
0.171173
0.182104
0.194591
0.208834
0.230702
0.175975
0.173001
0.164643
0.150702
0.130826
0.104653
0.072016
0.033225
-0.010621
-0.057450
-0.104226
-0.147899
-0.186102
-0.217303
-0.240675
-0.255930
-0.263123
-0.262620
-0.255271
-0.242142
-0.224450
-0.203483
-0.180535
-0.156843
-0.133563
-0.111765
-0.092468
-0.076674
-0.065188
-0.058463
-0.056366
-0.058020
-0.061852
-0.065917
-0.068420
-0.068049
-0.064308
-0.057455
-0.048131
-0.037163
-0.025401
-0.013600
-0.002363
0.007889
0.016919
0.024657
0.031180
0.036678
0.041415
0.045682
0.049757
0.053862
0.058057
0.062219
0.066171
0.069627
0.072226
0.073533
0.073056
0.070333
0.065105
0.057523
0.048292
0.038672
0.030276
0.024674
0.022757
0.023973
0.027598
0.032666
0.038190
0.043368
0.047717
0.051109
0.053725
0.055924
0.058080
0.060445
0.063102
0.065995
0.069001
0.072070
0.075308
0.078843
0.082842
0.087492
0.092919
0.099174
0.106207
0.113874
0.121986
0.130360
0.138893
0.147620
0.156755
0.166694
0.177989
0.191275
0.207220
0.234865
0.190857
0.187971
0.179697
0.165626
0.145117
0.117411
0.081895
0.038521
-0.011610
-0.065862
-0.119514
-0.168326
-0.209696
-0.242399
-0.266008
-0.280542
-0.286167
-0.283408
-0.273215
-0.256765
-0.235411
-0.210598
-0.183781
-0.156359
-0.129638
-0.104822
-0.083102
-0.065858
-0.054241
-0.048959
-0.049870
-0.055720
-0.064219
-0.072521
-0.078026
-0.079233
-0.075896
-0.068588
-0.058275
-0.046051
-0.032947
-0.019828
-0.007347
0.004056
0.014140
0.022833
0.030203
0.036418
0.041708
0.046327
0.050516
0.054464
0.058290
0.062013
0.065325
0.067995
0.069761
0.070307
0.069217
0.066049
0.060500
0.052610
0.042923
0.032545
0.023012
0.015937
0.012847
0.013866
0.017659
0.023307
0.029780
0.036197
0.041978
0.046883
0.050957
0.054422
0.057533
0.060482
0.063354
0.066147
0.068826
0.071395
0.073947
0.076700
0.079976
0.083927
0.088661
0.094277
0.100752
0.107956
0.115705
0.123821
0.132204
0.140884
0.150073
0.160180
0.171807
0.185727
0.202884
0.233180
0.210975
0.208223
0.200221
0.186302
0.165379
0.136026
0.096769
0.046714
-0.013314
-0.080057
-0.144566
-0.200519
-0.245585
-0.279577
-0.302880
-0.315910
-0.319002
-0.312900
-0.298588
-0.277365
-0.250772
-0.220478
-0.188173
-0.155489
-0.123934
-0.094863
-0.069555
-0.050078
-0.038195
-0.035130
-0.040779
-0.053302
-0.069248
-0.084240
-0.094158
-0.097124
-0.093802
-0.085297
-0.073121
-0.058781
-0.043569
-0.028480
-0.014221
-0.001238
0.010234
0.020132
0.028524
0.035567
0.041474
0.046480
0.050798
0.054572
0.057833
0.060801
0.063313
0.064993
0.065704
0.065326
0.063588
0.060116
0.054576
0.046876
0.037353
0.026871
0.016769
0.008611
0.003761
0.003894
0.007441
0.013369
0.020590
0.028135
0.035302
0.041703
0.047227
0.051950
0.056023
0.059586
0.062725
0.065471
0.067831
0.069850
0.071663
0.073516
0.075702
0.078658
0.082526
0.087364
0.093185
0.099875
0.107251
0.115133
0.123407
0.132088
0.141364
0.151623
0.163460
0.177681
0.195294
0.225756
0.236083
0.233613
0.226316
0.213222
0.192651
0.162150
0.118670
0.059400
-0.016080
-0.104707
-0.185670
-0.249931
-0.297716
-0.331659
-0.353536
-0.363840
-0.363328
-0.352673
-0.332757
-0.305034
-0.271323
-0.233614
-0.193933
-0.154237
-0.116331
-0.081795
-0.051759
-0.028969
-0.016369
-0.016105
-0.028122
-0.049811
-0.076272
-0.101113
-0.117948
-0.123030
-0.119103
-0.108381
-0.093231
-0.075746
-0.057549
-0.039782
-0.023187
-0.008202
0.004968
0.016285
0.025835
0.033783
0.040346
0.045751
0.050176
0.053697
0.056269
0.057769
0.058753
0.059127
0.058476
0.057068
0.054840
0.051465
0.046535
0.039794
0.031333
0.021724
0.012024
0.003619
-0.002096
-0.003989
-0.001050
0.004637
0.012074
0.020261
0.028393
0.035937
0.042626
0.048393
0.053286
0.057385
0.060757
0.063432
0.065433
0.066829
0.067795
0.068636
0.069740
0.071490
0.074340
0.078320
0.083456
0.089636
0.096674
0.104376
0.112607
0.121347
0.130738
0.141113
0.153013
0.167188
0.184582
0.213656
0.265656
0.263714
0.257829
0.246755
0.228155
0.198184
0.151142
0.080007
-0.020201
-0.150219
-0.253751
-0.323053
-0.368657
-0.399386
-0.418569
-0.425101
-0.420449
-0.404216
-0.377162
-0.341055
-0.298153
-0.250911
-0.201812
-0.153266
-0.107538
-0.066635
-0.032016
-0.004699
0.009693
0.007419
-0.011181
-0.042469
-0.080309
-0.116847
-0.143810
-0.154222
-0.149358
-0.135876
-0.117117
-0.095902
-0.074224
-0.053370
-0.034113
-0.016869
-0.001812
0.011050
0.021825
0.030700
0.037900
0.043634
0.048016
0.051011
0.052470
0.052307
0.050692
0.048828
0.046666
0.044495
0.042299
0.039678
0.036103
0.031146
0.024657
0.016905
0.008627
0.000941
-0.004894
-0.007856
-0.006386
-0.001510
0.005484
0.013632
0.022079
0.030183
0.037544
0.043963
0.049382
0.053809
0.057263
0.059753
0.061297
0.061978
0.062015
0.061780
0.061750
0.062399
0.064139
0.067229
0.071684
0.077388
0.084144
0.091735
0.099993
0.108846
0.118370
0.128819
0.140640
0.154477
0.171150
0.197943
0.298727
0.297626
0.294101
0.286792
0.272908
0.247185
0.200135
0.116191
-0.025899
-0.240654
-0.364426
-0.421135
-0.452264
-0.474969
-0.492176
-0.496861
-0.489292
-0.467308
-0.432097
-0.386151
-0.332407
-0.273934
-0.213802
-0.155019
-0.100490
-0.053060
-0.015456
0.013675
0.031203
0.027349
0.004048
-0.033342
-0.077984
-0.122186
-0.157758
-0.178046
-0.175338
-0.160671
-0.139442
-0.115406
-0.090955
-0.067532
-0.045967
-0.026701
-0.009917
0.004368
0.016258
0.025935
0.033606
0.039415
0.043339
0.045162
0.044679
0.042046
0.037974
0.033495
0.030105
0.027849
0.026437
0.025296
0.023771
0.021289
0.017496
0.012386
0.006373
0.000279
-0.004824
-0.007873
-0.008043
-0.004366
0.001619
0.009058
0.017119
0.025114
0.032548
0.039115
0.044653
0.049087
0.052379
0.054496
0.055439
0.055302
0.054341
0.052997
0.051828
0.051385
0.052088
0.054293
0.058092
0.063369
0.069909
0.077462
0.085811
0.094819
0.104482
0.114953
0.126566
0.139835
0.155428
0.179455
0.333752
0.333813
0.333653
0.332153
0.326751
0.311765
0.274406
0.185671
-0.028021
-0.434694
-0.528785
-0.524367
-0.523549
-0.534368
-0.555070
-0.568600
-0.561888
-0.535858
-0.493400
-0.438215
-0.374058
-0.304681
-0.233868
-0.165405
-0.102948
-0.050173
-0.011120
0.011272
0.024141
0.018124
-0.003963
-0.037603
-0.078051
-0.119534
-0.155273
-0.178827
-0.186238
-0.173361
-0.152656
-0.128473
-0.103464
-0.079216
-0.056666
-0.036356
-0.018571
-0.003413
0.009145
0.019214
0.026903
0.032200
0.034867
0.034572
0.031301
0.025782
0.019412
0.013617
0.009866
0.008335
0.008435
0.009409
0.010477
0.010944
0.010301
0.008314
0.005112
0.001219
-0.002532
-0.005203
-0.006041
-0.003889
0.000750
0.006968
0.014044
0.021308
0.028223
0.034406
0.039610
0.043680
0.046508
0.048017
0.048183
0.047103
0.045071
0.042585
0.040268
0.038731
0.038442
0.039787
0.042968
0.047875
0.054269
0.061856
0.070352
0.079542
0.089327
0.099753
0.111032
0.123537
0.137787
0.158776
0.368615
0.370040
0.373939
0.379874
0.386588
0.390509
0.381106
0.324866
0.072544
-0.794416
-0.714398
-0.580038
-0.550561
-0.550394
-0.576891
-0.614236
-0.616200
-0.591285
-0.546861
-0.487785
-0.418378
-0.343015
-0.266427
-0.193881
-0.130751
-0.081219
-0.047198
-0.028730
-0.025556
-0.030635
-0.043610
-0.063828
-0.089582
-0.117918
-0.144433
-0.164145
-0.173376
-0.168810
-0.151860
-0.130689
-0.107970
-0.085319
-0.063766
-0.044002
-0.026476
-0.011460
0.000916
0.010605
0.017528
0.021446
0.021946
0.018776
0.012418
0.004325
-0.003562
-0.009672
-0.012744
-0.012749
-0.010468
-0.006836
-0.002768
0.000931
0.003634
0.004948
0.004781
0.003395
0.001392
-0.000427
-0.001260
-0.000475
0.002690
0.007392
0.013071
0.019129
0.025034
0.030365
0.034810
0.038147
0.040203
0.040851
0.040043
0.037879
0.034680
0.030991
0.027489
0.024844
0.023586
0.024067
0.026664
0.031258
0.037577
0.045262
0.053947
0.063324
0.073190
0.083480
0.094282
0.105837
0.118521
0.136285
0.400838
0.403587
0.411480
0.424975
0.444815
0.471821
0.505970
0.542161
0.617214
-0.088601
-0.635413
-0.556428
-0.551554
-0.552147
-0.571919
-0.609040
-0.628009
-0.609446
-0.571102
-0.517262
-0.452361
-0.381456
-0.310371
-0.245349
-0.192097
-0.154588
-0.131391
-0.117531
-0.112809
-0.107888
-0.105255
-0.106310
-0.111623
-0.120760
-0.131866
-0.141833
-0.147382
-0.146306
-0.136826
-0.120862
-0.102744
-0.083899
-0.065346
-0.047881
-0.032129
-0.018558
-0.007504
0.000767
0.005941
0.007544
0.005102
-0.001333
-0.010632
-0.020705
-0.029340
-0.035035
-0.036602
-0.034345
-0.029256
-0.022475
-0.015085
-0.008008
-0.001955
0.002588
0.005390
0.006528
0.006399
0.005658
0.005048
0.005197
0.006906
0.010024
0.014115
0.018687
0.023253
0.027386
0.030738
0.033031
0.034040
0.033592
0.031617
0.028217
0.023736
0.018754
0.013999
0.010199
0.007951
0.007574
0.009615
0.013946
0.020246
0.028075
0.036970
0.046510
0.056383
0.066412
0.076567
0.086969
0.097869
0.112222
0.428020
0.431762
0.442630
0.461701
0.491056
0.534358
0.598059
0.693338
0.827371
0.866049
0.000000
-0.555527
-0.554626
-0.550041
-0.560071
-0.578315
-0.591399
-0.582622
-0.553513
-0.510431
-0.457907
-0.401853
-0.348945
-0.305378
-0.274733
-0.254908
-0.239785
-0.228482
-0.212146
-0.192102
-0.171324
-0.152255
-0.136738
-0.125925
-0.119940
-0.117580
-0.116580
-0.114513
-0.109731
-0.100550
-0.088173
-0.074533
-0.060459
-0.046757
-0.034169
-0.023335
-0.014790
-0.009026
-0.006612
-0.008202
-0.014198
-0.024092
-0.036108
-0.047701
-0.056561
-0.061312
-0.060693
-0.055517
-0.047060
-0.036717
-0.025774
-0.015280
-0.006011
0.001509
0.007000
0.010437
0.012082
0.012458
0.012246
0.012105
0.012628
0.014334
0.016857
0.019864
0.022944
0.025690
0.027739
0.028775
0.028532
0.026803
0.023499
0.018726
0.012848
0.006476
0.000385
-0.004636
-0.007916
-0.009134
-0.007633
-0.003540
0.002767
0.010753
0.019838
0.029479
0.039245
0.048846
0.058147
0.067163
0.076038
0.086754
0.448369
0.452570
0.464764
0.486085
0.518580
0.565377
0.630403
0.715247
0.812663
0.904727
0.825919
0.000000
-0.548291
-0.541955
-0.532179
-0.529843
-0.528596
-0.520150
-0.496697
-0.464390
-0.429272
-0.397736
-0.375322
-0.364225
-0.360131
-0.357900
-0.352241
-0.332829
-0.301803
-0.265023
-0.226362
-0.189112
-0.155794
-0.128187
-0.107315
-0.093236
-0.084821
-0.079993
-0.076445
-0.072297
-0.066005
-0.058022
-0.049128
-0.040066
-0.031612
-0.024509
-0.019454
-0.017155
-0.018411
-0.023984
-0.034063
-0.047601
-0.062245
-0.075135
-0.083915
-0.087241
-0.083855
-0.075235
-0.062996
-0.048835
-0.034260
-0.020449
-0.008225
0.001897
0.009654
0.015008
0.018154
0.019530
0.019753
0.019497
0.019349
0.019761
0.020857
0.022383
0.023995
0.025321
0.025995
0.025680
0.024078
0.020961
0.016227
0.009991
0.002633
-0.005201
-0.012696
-0.018998
-0.023372
-0.025352
-0.024418
-0.020575
-0.014284
-0.006185
0.003014
0.012638
0.022131
0.031093
0.039292
0.046653
0.053236
0.060037
0.461050
0.465160
0.477011
0.497402
0.527576
0.568957
0.622668
0.688571
0.755840
0.781537
0.747111
0.635238
0.000000
-0.519342
-0.496728
-0.474290
-0.459273
-0.441879
-0.418480
-0.395895
-0.380538
-0.377548
-0.389055
-0.412134
-0.436027
-0.450421
-0.445237
-0.413244
-0.368305
-0.316194
-0.262065
-0.210058
-0.163156
-0.123299
-0.091606
-0.068497
-0.053558
-0.045370
-0.041721
-0.040320
-0.038877
-0.035910
-0.032089
-0.027859
-0.023931
-0.021090
-0.020156
-0.022034
-0.027712
-0.037944
-0.052570
-0.069964
-0.087267
-0.101382
-0.109966
-0.111128
-0.104621
-0.092252
-0.076066
-0.058089
-0.040041
-0.023208
-0.008434
0.003809
0.013325
0.020125
0.024403
0.026552
0.027139
0.026813
0.026159
0.025675
0.025622
0.025878
0.026178
0.026186
0.025544
0.023902
0.020943
0.016425
0.010247
0.002531
-0.006320
-0.015632
-0.024543
-0.032138
-0.037601
-0.040373
-0.040003
-0.036459
-0.030267
-0.022172
-0.013009
-0.003586
0.005411
0.013475
0.020285
0.025692
0.029693
0.032257
0.466227
0.469815
0.480073
0.497407
0.522403
0.555429
0.595534
0.637856
0.669930
0.665080
0.605653
0.523365
0.361970
0.000000
-0.456160
-0.415592
-0.400740
-0.370463
-0.341880
-0.325605
-0.327275
-0.348916
-0.390774
-0.444604
-0.492293
-0.517203
-0.503500
-0.462030
-0.405851
-0.342111
-0.276863
-0.214751
-0.158936
-0.111301
-0.072780
-0.043685
-0.023820
-0.012324
-0.007475
-0.006908
-0.008192
-0.009756
-0.010417
-0.010621
-0.011056
-0.012534
-0.015985
-0.022488
-0.033130
-0.048510
-0.067994
-0.089361
-0.109302
-0.124503
-0.132620
-0.131173
-0.121308
-0.105162
-0.085201
-0.063745
-0.042686
-0.023372
-0.006626
0.007154
0.017869
0.025613
0.030624
0.033283
0.034117
0.033746
0.032762
0.031643
0.030724
0.029982
0.029210
0.028104
0.026311
0.023473
0.019264
0.013435
0.005891
-0.003230
-0.013502
-0.024224
-0.034489
-0.043323
-0.049841
-0.053408
-0.053620
-0.050467
-0.044525
-0.036629
-0.027732
-0.018770
-0.010551
-0.003688
0.001418
0.004557
0.005676
0.003662
0.464853
0.467704
0.475775
0.489099
0.507499
0.530174
0.554721
0.575529
0.581747
0.555614
0.479465
0.343789
0.200575
-0.207713
-0.445654
-0.391096
-0.365285
-0.315136
-0.278478
-0.263594
-0.278696
-0.321449
-0.386076
-0.458582
-0.517680
-0.543404
-0.521822
-0.475074
-0.412775
-0.343156
-0.272751
-0.206269
-0.146724
-0.095741
-0.053963
-0.021470
0.001915
0.016639
0.023717
0.024941
0.022518
0.018431
0.014523
0.010774
0.006561
0.001062
-0.006748
-0.018055
-0.033917
-0.054610
-0.078940
-0.104116
-0.126440
-0.142381
-0.149522
-0.145335
-0.132160
-0.112582
-0.089415
-0.065197
-0.041915
-0.020912
-0.002944
0.011695
0.023016
0.031212
0.036578
0.039498
0.040466
0.040060
0.038862
0.037346
0.035823
0.034369
0.032810
0.030853
0.028148
0.024329
0.019063
0.012102
0.003363
-0.006997
-0.018530
-0.030504
-0.041978
-0.051931
-0.059420
-0.063756
-0.064577
-0.061940
-0.056455
-0.049024
-0.040696
-0.032519
-0.025412
-0.020085
-0.017011
-0.016450
-0.018493
-0.025405
0.458267
0.460267
0.465839
0.474713
0.486231
0.498953
0.509981
0.513995
0.502188
0.461434
0.374645
0.218563
-0.055500
-0.616000
-0.500213
-0.390628
-0.334062
-0.280626
-0.237046
-0.229153
-0.254269
-0.307268
-0.379650
-0.455429
-0.513859
-0.526510
-0.502555
-0.454565
-0.392032
-0.323063
-0.253895
-0.188863
-0.130612
-0.080452
-0.038751
-0.005341
0.020098
0.037812
0.048149
0.051994
0.050919
0.046633
0.040918
0.034816
0.027656
0.018653
0.006758
-0.009215
-0.030129
-0.055806
-0.084474
-0.112861
-0.136967
-0.153102
-0.158816
-0.151752
-0.135684
-0.113442
-0.088046
-0.062140
-0.037706
-0.016010
0.002306
0.017068
0.028401
0.036587
0.041975
0.044955
0.045979
0.045568
0.044264
0.042536
0.040665
0.038782
0.036725
0.034207
0.030867
0.026333
0.020265
0.012418
0.002725
-0.008636
-0.021194
-0.034191
-0.046658
-0.057544
-0.065873
-0.070925
-0.072379
-0.070397
-0.065600
-0.058935
-0.051523
-0.044499
-0.038871
-0.035427
-0.034700
-0.036991
-0.042423
-0.054482
0.448011
0.449168
0.452307
0.456988
0.462316
0.466651
0.467173
0.459347
0.436389
0.388871
0.304407
0.166915
-0.043468
-0.307654
-0.348908
-0.322630
-0.287980
-0.252809
-0.228483
-0.228001
-0.254827
-0.306185
-0.372177
-0.436585
-0.476731
-0.478646
-0.453677
-0.408741
-0.351565
-0.288982
-0.226305
-0.167228
-0.113996
-0.067709
-0.028638
0.003459
0.029040
0.048493
0.061978
0.069663
0.072181
0.070318
0.065615
0.058804
0.049749
0.037995
0.022618
0.002581
-0.022637
-0.052346
-0.084261
-0.114756
-0.139662
-0.155291
-0.158533
-0.149146
-0.131063
-0.107313
-0.081000
-0.054735
-0.030394
-0.009098
0.008655
0.022816
0.033606
0.041376
0.046511
0.049400
0.050445
0.050093
0.048819
0.047050
0.045077
0.043025
0.040746
0.037947
0.034260
0.029297
0.022710
0.014260
0.003894
-0.008188
-0.021491
-0.035236
-0.048438
-0.060031
-0.069034
-0.074718
-0.076814
-0.075603
-0.071711
-0.066110
-0.059966
-0.054470
-0.050688
-0.049457
-0.051349
-0.056693
-0.065646
-0.082972
0.435618
0.436028
0.437037
0.438147
0.438423
0.436299
0.429336
0.413961
0.385290
0.337155
0.262503
0.154798
0.013558
-0.138345
-0.213271
-0.235613
-0.234494
-0.225877
-0.221806
-0.231536
-0.258660
-0.301130
-0.350847
-0.393965
-0.414264
-0.412048
-0.389439
-0.351208
-0.302990
-0.250027
-0.196553
-0.145614
-0.099143
-0.058145
-0.022944
0.006586
0.030812
0.050150
0.064934
0.075407
0.081677
0.084667
0.083891
0.078265
0.068860
0.055673
0.038021
0.015177
-0.012928
-0.045096
-0.078634
-0.109694
-0.134075
-0.148288
-0.148323
-0.137501
-0.118558
-0.094686
-0.068921
-0.043705
-0.020705
-0.000853
0.015511
0.028445
0.038235
0.045269
0.049942
0.052627
0.053680
0.053466
0.052371
0.050755
0.048922
0.046942
0.044687
0.041867
0.038100
0.032984
0.026162
0.017396
0.006646
-0.005868
-0.019628
-0.033839
-0.047508
-0.059571
-0.069058
-0.075262
-0.077981
-0.077606
-0.074776
-0.070484
-0.065921
-0.062300
-0.060701
-0.061964
-0.066666
-0.075151
-0.087611
-0.110114
0.422453
0.422250
0.421532
0.419822
0.416262
0.409507
0.397604
0.377916
0.347141
0.301574
0.237789
0.154156
0.054283
-0.047735
-0.119695
-0.161045
-0.182322
-0.194022
-0.205048
-0.221907
-0.247358
-0.279886
-0.313626
-0.339321
-0.350476
-0.346240
-0.327215
-0.296278
-0.257250
-0.213943
-0.169620
-0.126755
-0.087016
-0.051356
-0.020169
0.006546
0.029031
0.047637
0.062718
0.074560
0.083353
0.089976
0.091933
0.088984
0.081180
0.068398
0.050246
0.026431
-0.002617
-0.035246
-0.068467
-0.098325
-0.120662
-0.132085
-0.129923
-0.118266
-0.099643
-0.077041
-0.053213
-0.030297
-0.009687
0.007895
0.022247
0.033503
0.041981
0.048067
0.052145
0.054557
0.055610
0.055599
0.054818
0.053548
0.052072
0.050382
0.048368
0.045751
0.042141
0.037120
0.030319
0.021501
0.010633
-0.002044
-0.015997
-0.030415
-0.044303
-0.056611
-0.066394
-0.072970
-0.076245
-0.076696
-0.074996
-0.072171
-0.069429
-0.067970
-0.068828
-0.072790
-0.080380
-0.091935
-0.107690
-0.134979
0.409634
0.408957
0.406920
0.403111
0.396806
0.386926
0.371997
0.350161
0.319297
0.277324
0.222801
0.155967
0.080355
0.004251
-0.058860
-0.105105
-0.137409
-0.161032
-0.181317
-0.202346
-0.225923
-0.251106
-0.274365
-0.290688
-0.297085
-0.292183
-0.276324
-0.251312
-0.219733
-0.184338
-0.147616
-0.111561
-0.077600
-0.046614
-0.019032
0.005060
0.025811
0.043492
0.058414
0.070832
0.081335
0.088895
0.092638
0.091947
0.086306
0.075194
0.058193
0.035293
0.007316
-0.023757
-0.054772
-0.081809
-0.100964
-0.108816
-0.105374
-0.093947
-0.076845
-0.056695
-0.035848
-0.016082
0.001484
0.016315
0.028312
0.037656
0.044668
0.049714
0.053142
0.055257
0.056315
0.056547
0.056170
0.055412
0.054443
0.053211
0.051616
0.049384
0.046121
0.041397
0.034830
0.026179
0.015416
0.002796
-0.011130
-0.025542
-0.039442
-0.051798
-0.061704
-0.068434
-0.072155
-0.073331
-0.072722
-0.071419
-0.070646
-0.071556
-0.075074
-0.081840
-0.092263
-0.106624
-0.125208
-0.156483
0.398027
0.396999
0.393999
0.388699
0.380525
0.368652
0.352005
0.329324
0.299294
0.260810
0.213411
0.157883
0.096959
0.035619
-0.019613
-0.065435
-0.102045
-0.131629
-0.156955
-0.180308
-0.202730
-0.223690
-0.241242
-0.252880
-0.256611
-0.251581
-0.238068
-0.217309
-0.191144
-0.161615
-0.130654
-0.099880
-0.070504
-0.043321
-0.018755
0.003069
0.022235
0.038953
0.053484
0.066067
0.076830
0.084954
0.089821
0.090735
0.086984
0.077879
0.062955
0.042302
0.016926
-0.011045
-0.038452
-0.061566
-0.076881
-0.081729
-0.078293
-0.068155
-0.053440
-0.036390
-0.018963
-0.002614
0.011760
0.023758
0.033353
0.040755
0.046286
0.050292
0.053084
0.054922
0.056010
0.056514
0.056574
0.056454
0.056040
0.055364
0.054305
0.052582
0.049798
0.045511
0.039331
0.031005
0.020509
0.008107
-0.005634
-0.019881
-0.033632
-0.045862
-0.055704
-0.062389
-0.066359
-0.068065
-0.068402
-0.068566
-0.069811
-0.073211
-0.079503
-0.089084
-0.102142
-0.118847
-0.139520
-0.173453
0.388276
0.386987
0.383300
0.376978
0.367585
0.354504
0.336970
0.314137
0.285210
0.249641
0.207417
0.159393
0.107585
0.055142
0.005732
-0.038201
-0.075963
-0.108171
-0.136032
-0.160655
-0.182538
-0.201339
-0.215984
-0.225114
-0.227421
-0.222483
-0.210603
-0.192742
-0.170311
-0.144911
-0.118099
-0.091219
-0.065311
-0.041080
-0.018921
0.001031
0.018830
0.034645
0.048687
0.061141
0.071858
0.080338
0.086023
0.088202
0.086096
0.078984
0.066418
0.048554
0.026456
0.002239
-0.021113
-0.040257
-0.052257
-0.056142
-0.053244
-0.044806
-0.032621
-0.018573
-0.004308
0.008950
0.020451
0.029881
0.037266
0.042853
0.046986
0.050014
0.052230
0.053849
0.055021
0.055837
0.056422
0.056815
0.056973
0.056884
0.056402
0.055238
0.052990
0.049210
0.043493
0.035581
0.025446
0.013356
-0.000107
-0.014092
-0.027579
-0.039532
-0.049085
-0.055587
-0.059539
-0.061519
-0.062581
-0.064056
-0.067249
-0.073143
-0.082220
-0.094524
-0.109910
-0.128347
-0.150130
-0.184792
0.380859
0.379347
0.375156
0.368146
0.357988
0.344216
0.326274
0.303592
0.275687
0.242313
0.203647
0.160479
0.114322
0.067327
0.021873
-0.020181
-0.057881
-0.091088
-0.120136
-0.145423
-0.167081
-0.184819
-0.197980
-0.205742
-0.207312
-0.202528
-0.191741
-0.175782
-0.155826
-0.133208
-0.109247
-0.085102
-0.061687
-0.039631
-0.019294
-0.000802
0.015890
0.030932
0.044506
0.056753
0.067432
0.076212
0.082581
0.085831
0.085163
0.079845
0.069456
0.054191
0.035124
0.014265
-0.005677
-0.021863
-0.032045
-0.035755
-0.033558
-0.026599
-0.016440
-0.004722
0.007115
0.017987
0.027237
0.034606
0.040163
0.044195
0.047093
0.049245
0.050956
0.052422
0.053745
0.054912
0.055933
0.056793
0.057484
0.057943
0.058002
0.057364
0.055628
0.052339
0.047085
0.039596
0.029838
0.018082
0.004923
-0.008764
-0.021926
-0.033494
-0.042576
-0.048730
-0.052465
-0.054496
-0.056039
-0.058570
-0.063468
-0.071644
-0.083318
-0.098118
-0.115464
-0.135014
-0.156904
-0.189852
0.376187
0.374355
0.369742
0.362273
0.351662
0.337524
0.319430
0.296967
0.269828
0.237918
0.201488
0.161245
0.118399
0.074578
0.031557
-0.009139
-0.046488
-0.080004
-0.109566
-0.135176
-0.156745
-0.173973
-0.186371
-0.193400
-0.194609
-0.189974
-0.179880
-0.165097
-0.146671
-0.125789
-0.103625
-0.081225
-0.059420
-0.038791
-0.019673
-0.002185
0.013712
0.028159
0.041340
0.053411
0.064100
0.073172
0.080122
0.084238
0.084693
0.080736
0.071946
0.058534
0.041564
0.022959
0.005196
-0.009235
-0.018571
-0.022213
-0.020525
-0.014551
-0.005708
0.004513
0.014792
0.024130
0.031919
0.037928
0.042241
0.045169
0.047135
0.048573
0.049835
0.051147
0.052630
0.054039
0.055417
0.056707
0.057855
0.058768
0.059266
0.059053
0.057730
0.054844
0.049974
0.042838
0.033393
0.021912
0.009006
-0.004419
-0.017271
-0.028436
-0.036968
-0.042823
-0.046345
-0.048358
-0.050184
-0.053400
-0.059464
-0.069287
-0.082932
-0.099690
-0.118560
-0.138823
-0.160271
-0.189216
0.374863
0.372112
0.367095
0.359357
0.348532
0.334248
0.316130
0.293837
0.267134
0.235988
0.200666
0.161823
0.120524
0.078168
0.036287
-0.003736
-0.040866
-0.074475
-0.104247
-0.130008
-0.151562
-0.168605
-0.180753
-0.187524
-0.188623
-0.184109
-0.174387
-0.160194
-0.142516
-0.122464
-0.101145
-0.079547
-0.058465
-0.038459
-0.019858
-0.002786
0.012786
0.026976
0.039915
0.051659
0.062374
0.071714
0.079123
0.083843
0.085000
0.081796
0.073787
0.061187
0.045083
0.027396
0.010520
-0.003300
-0.012465
-0.016126
-0.014717
-0.009237
-0.001023
0.008517
0.018122
0.026833
0.034057
0.039567
0.043438
0.045971
0.047586
0.048721
0.049738
0.050852
0.052076
0.053622
0.055260
0.056855
0.058316
0.059533
0.060321
0.060386
0.059330
0.056696
0.052054
0.045107
0.035802
0.024415
0.011575
-0.001769
-0.014487
-0.025493
-0.034026
-0.039844
-0.043355
-0.045443
-0.047435
-0.050903
-0.057317
-0.067617
-0.081890
-0.099382
-0.118956
-0.139674
-0.161051
-0.186364
