# vtk DataFile Version 3.0
Scalar Field
ASCII
DATASET RECTILINEAR_GRID
DIMENSIONS 100 26 1
X_COORDINATES 100 double
0.050000 0.150000 0.250000 0.350000 0.450000 0.550000 0.650000 0.750000 0.850000 0.950000 1.050000 1.150000 1.250000 1.350000 1.450000 1.550000 1.650000 1.750000 1.850000 1.950000 2.050000 2.150000 2.250000 2.350000 2.450000 2.550000 2.650000 2.750000 2.850000 2.950000 3.050000 3.150000 3.250000 3.350000 3.450000 3.550000 3.650000 3.750000 3.850000 3.950000 4.050000 4.150000 4.250000 4.350000 4.450000 4.550000 4.650000 4.750000 4.850000 4.950000 5.050000 5.150000 5.250000 5.350000 5.450000 5.550000 5.650000 5.750000 5.850000 5.950000 6.050000 6.150000 6.250000 6.350000 6.450000 6.550000 6.650000 6.750000 6.850000 6.950000 7.050000 7.150000 7.250000 7.350000 7.450000 7.550000 7.650000 7.750000 7.850000 7.950000 8.050000 8.150000 8.250000 8.350000 8.450000 8.550000 8.650000 8.750000 8.850000 8.950000 9.050000 9.150000 9.250000 9.350000 9.450000 9.550000 9.650000 9.750000 9.850000 9.950000 
Y_COORDINATES 26 double
0.050000 0.150000 0.250000 0.350000 0.450000 0.550000 0.650000 0.750000 0.850000 0.950000 1.050000 1.150000 1.250000 1.350000 1.450000 1.550000 1.650000 1.750000 1.850000 1.950000 2.050000 2.150000 2.250000 2.350000 2.450000 2.550000 
Z_COORDINATES 1 double
0.0
POINT_DATA 2600
SCALARS Skalarfeld double 1
LOOKUP_TABLE default
0.203606
0.199918
0.192238
0.180151
0.163386
0.141776
0.115314
0.084268
0.049287
0.011455
-0.027786
-0.066854
-0.104293
-0.138921
-0.169869
-0.196515
-0.218395
-0.235140
-0.246462
-0.252038
-0.251824
-0.246059
-0.235248
-0.220149
-0.201690
-0.180881
-0.158707
-0.136046
-0.113612
-0.091926
-0.071317
-0.051957
-0.033904
-0.017179
-0.001871
0.012029
0.024128
0.033749
0.040075
0.042354
0.040202
0.033902
0.024522
0.013766
0.003541
-0.004589
-0.009415
-0.010643
-0.008703
-0.004350
0.001522
0.008046
0.014492
0.020333
0.025261
0.029178
0.032168
0.034450
0.036321
0.038082
0.039946
0.042033
0.044506
0.047069
0.049432
0.051306
0.052417
0.052505
0.051344
0.048785
0.044820
0.039668
0.033811
0.027937
0.022762
0.018911
0.016732
0.015996
0.016274
0.017004
0.017610
0.017606
0.016679
0.014724
0.011828
0.008222
0.004198
0.000021
-0.004127
-0.008183
-0.012191
-0.016269
-0.020582
-0.025149
-0.030117
-0.035539
-0.041367
-0.047466
-0.053607
-0.060015
0.206651
0.203835
0.196414
0.184327
0.167349
0.145265
0.118001
0.085793
0.049338
0.009875
-0.030891
-0.071156
-0.109376
-0.144416
-0.175530
-0.202231
-0.224162
-0.240991
-0.252392
-0.258030
-0.257746
-0.251729
-0.240479
-0.224775
-0.205597
-0.184007
-0.161044
-0.137626
-0.114494
-0.092185
-0.071035
-0.051209
-0.032749
-0.015640
0.000138
0.014277
0.026351
0.035715
0.041568
0.043187
0.040229
0.033009
0.022639
0.010906
-0.000126
-0.008636
-0.013593
-0.014713
-0.012466
-0.007686
-0.001338
0.005659
0.012548
0.018787
0.024067
0.028296
0.031565
0.034099
0.036198
0.038169
0.040269
0.042581
0.044921
0.047210
0.049236
0.050764
0.051552
0.051376
0.050029
0.047360
0.043335
0.038118
0.032136
0.026062
0.020730
0.016857
0.014634
0.013900
0.014245
0.015096
0.015858
0.016034
0.015304
0.013560
0.010889
0.007520
0.003736
-0.000202
-0.004126
-0.007985
-0.011830
-0.015776
-0.019937
-0.024538
-0.029614
-0.035186
-0.041213
-0.047581
-0.054086
-0.061531
0.214851
0.212271
0.205015
0.192901
0.175577
0.152648
0.123850
0.089291
0.049730
0.006737
-0.037320
-0.080098
-0.119888
-0.155701
-0.187087
-0.213869
-0.235913
-0.252980
-0.264717
-0.270597
-0.270262
-0.263807
-0.251707
-0.234791
-0.214134
-0.190913
-0.166270
-0.141206
-0.116523
-0.092797
-0.070386
-0.049468
-0.030083
-0.012210
0.004152
0.018700
0.030895
0.039984
0.045081
0.045433
0.040731
0.031383
0.018661
0.004614
-0.008336
-0.018024
-0.023300
-0.024130
-0.021174
-0.015435
-0.008016
0.000073
0.008023
0.015271
0.021503
0.026627
0.030728
0.034013
0.036742
0.039163
0.041466
0.043744
0.045925
0.047880
0.049459
0.050481
0.050763
0.050132
0.048421
0.045481
0.041241
0.035800
0.029508
0.022986
0.017050
0.012507
0.010063
0.009269
0.009727
0.010854
0.012036
0.012752
0.012654
0.011603
0.009647
0.006971
0.003820
0.000415
-0.003098
-0.006676
-0.010369
-0.014280
-0.018533
-0.023255
-0.028535
-0.034387
-0.040782
-0.047653
-0.054888
-0.064044
0.227757
0.225297
0.218223
0.206158
0.188486
0.164453
0.133384
0.095064
0.050260
0.001084
-0.048560
-0.095278
-0.137218
-0.173823
-0.205266
-0.231946
-0.254108
-0.271626
-0.283987
-0.290365
-0.290073
-0.282994
-0.269555
-0.250687
-0.227653
-0.201827
-0.174528
-0.146888
-0.119802
-0.093907
-0.069600
-0.047076
-0.026380
-0.007465
0.009729
0.024962
0.037470
0.046292
0.050358
0.048854
0.041520
0.028880
0.012419
-0.005431
-0.021653
-0.033376
-0.038949
-0.039125
-0.034879
-0.027495
-0.018294
-0.008431
0.001209
0.010037
0.017730
0.024193
0.029495
0.033808
0.037345
0.040314
0.042873
0.045114
0.047045
0.048681
0.049787
0.050230
0.049904
0.048712
0.046552
0.043301
0.038870
0.033298
0.026840
0.020013
0.013551
0.008264
0.004808
0.003819
0.004312
0.005713
0.007395
0.008805
0.009554
0.009443
0.008457
0.006710
0.004382
0.001645
-0.001381
-0.004655
-0.008207
-0.012112
-0.016467
-0.021368
-0.026888
-0.033064
-0.039907
-0.047404
-0.055533
-0.066389
0.245145
0.242854
0.236164
0.224462
0.206732
0.181613
0.147641
0.103825
0.050688
-0.008995
-0.067465
-0.119486
-0.163528
-0.200189
-0.230849
-0.256881
-0.279127
-0.297561
-0.311217
-0.318684
-0.318766
-0.310918
-0.295510
-0.273705
-0.247112
-0.217450
-0.186308
-0.155011
-0.124572
-0.095702
-0.068840
-0.044205
-0.021841
-0.001665
0.016477
0.032628
0.045650
0.054261
0.057126
0.053426
0.043018
0.026536
0.005590
-0.017131
-0.038060
-0.053460
-0.060417
-0.059654
-0.053581
-0.043843
-0.032108
-0.019762
-0.007808
0.003120
0.012692
0.020814
0.027548
0.033048
0.037510
0.041122
0.044032
0.046316
0.047954
0.048981
0.049545
0.049304
0.048249
0.046372
0.043695
0.040171
0.035726
0.030344
0.024167
0.017555
0.011084
0.005450
0.001277
-0.000723
-0.000396
0.001094
0.003125
0.005124
0.006657
0.007465
0.007453
0.006657
0.005183
0.003151
0.000651
-0.002274
-0.005637
-0.009485
-0.013889
-0.018926
-0.024665
-0.031163
-0.038465
-0.046608
-0.055633
-0.068070
0.266701
0.264725
0.258844
0.248180
0.231190
0.205584
0.168463
0.117069
0.050779
-0.027496
-0.099264
-0.156940
-0.201326
-0.235739
-0.263628
-0.287838
-0.310090
-0.330477
-0.347102
-0.357031
-0.358372
-0.349758
-0.331578
-0.305510
-0.273811
-0.238755
-0.202327
-0.166098
-0.131219
-0.098473
-0.068340
-0.041069
-0.016728
0.004761
0.023595
0.040428
0.054049
0.062494
0.064042
0.058100
0.044870
0.025163
0.000559
-0.026352
-0.051955
-0.072070
-0.083090
-0.082595
-0.075041
-0.062930
-0.048443
-0.033297
-0.018690
-0.005351
0.006354
0.016323
0.024617
0.031393
0.036846
0.041164
0.044483
0.046848
0.048200
0.048425
0.047596
0.046398
0.044441
0.041722
0.038512
0.034885
0.030772
0.026081
0.020811
0.015133
0.009422
0.004203
0.000038
-0.002619
-0.003158
-0.001861
0.000212
0.002500
0.004547
0.006044
0.006825
0.006848
0.006146
0.004783
0.002820
0.000288
-0.002816
-0.006523
-0.010887
-0.015976
-0.021860
-0.028615
-0.036314
-0.045040
-0.054880
-0.068749
0.291843
0.290412
0.286008
0.277524
0.262847
0.238452
0.199037
0.137977
0.050436
-0.063302
-0.152975
-0.212555
-0.251746
-0.279036
-0.300487
-0.320695
-0.342577
-0.366667
-0.390004
-0.405649
-0.410242
-0.401225
-0.379343
-0.347390
-0.308754
-0.266547
-0.223271
-0.180776
-0.140342
-0.102807
-0.068684
-0.038270
-0.011727
0.010906
0.029785
0.045179
0.059021
0.066983
0.066650
0.058270
0.042961
0.021878
-0.003713
-0.031867
-0.059566
-0.082938
-0.098254
-0.101921
-0.094166
-0.080868
-0.064513
-0.047164
-0.030271
-0.014731
-0.001008
0.010741
0.020549
0.028563
0.034975
0.039965
0.043635
0.045962
0.046817
0.046088
0.043873
0.040464
0.037058
0.033461
0.029943
0.026605
0.023323
0.019897
0.016175
0.012138
0.007942
0.003910
0.000464
-0.001980
-0.003144
-0.002554
-0.000740
0.001485
0.003687
0.005537
0.006824
0.007439
0.007349
0.006565
0.005108
0.002990
0.000206
-0.003274
-0.007496
-0.012527
-0.018445
-0.025341
-0.033319
-0.042497
-0.053010
-0.068124
0.319568
0.318969
0.316911
0.312218
0.302425
0.282792
0.244635
0.173554
0.049842
-0.137264
-0.241997
-0.287884
-0.310730
-0.323931
-0.334146
-0.347146
-0.367083
-0.395725
-0.430572
-0.460330
-0.471814
-0.463494
-0.437256
-0.398044
-0.351006
-0.300345
-0.249131
-0.199474
-0.152753
-0.109835
-0.071253
-0.037377
-0.008561
0.014785
0.032487
0.045097
0.053025
0.059142
0.055812
0.045327
0.030245
0.011292
-0.011209
-0.036328
-0.061994
-0.085047
-0.101950
-0.109992
-0.105275
-0.092985
-0.076636
-0.058613
-0.040620
-0.023758
-0.008651
0.004421
0.015407
0.024399
0.031546
0.036976
0.040703
0.042582
0.042402
0.040122
0.036088
0.031017
0.025754
0.021401
0.017976
0.015415
0.013469
0.011816
0.010162
0.008310
0.006213
0.003984
0.001875
0.000207
-0.000732
-0.000775
0.000440
0.002320
0.004341
0.006206
0.007686
0.008629
0.008952
0.008614
0.007595
0.005882
0.003453
0.000274
-0.003707
-0.008561
-0.014378
-0.021266
-0.029356
-0.038800
-0.049780
-0.065887
0.348353
0.348863
0.350034
0.350953
0.349452
0.340560
0.312794
0.239684
0.054100
-0.302197
-0.377998
-0.369870
-0.364703
-0.360291
-0.356756
-0.360296
-0.375638
-0.405710
-0.451083
-0.502740
-0.530407
-0.525445
-0.495764
-0.449799
-0.394921
-0.336437
-0.277905
-0.221642
-0.169123
-0.121267
-0.078661
-0.041773
-0.011291
0.011538
0.025516
0.031684
0.032910
0.029450
0.023610
0.015207
0.004620
-0.008252
-0.023801
-0.041993
-0.061770
-0.080876
-0.096313
-0.105252
-0.105952
-0.096377
-0.081986
-0.065175
-0.047731
-0.030904
-0.015493
-0.001943
0.009556
0.018978
0.026370
0.031739
0.034952
0.035744
0.033909
0.029627
0.023637
0.017056
0.010926
0.006257
0.003381
0.002043
0.001848
0.002345
0.003103
0.003773
0.004127
0.004092
0.003747
0.003293
0.002983
0.003045
0.003624
0.004946
0.006550
0.008162
0.009563
0.010588
0.011119
0.011075
0.010402
0.009056
0.006995
0.004168
0.000514
-0.004049
-0.009621
-0.016330
-0.024329
-0.033803
-0.044977
-0.061698
0.376174
0.377948
0.382892
0.390756
0.400657
0.409739
0.408962
0.368264
0.150353
-0.621888
-0.537681
-0.416607
-0.393978
-0.381369
-0.369011
-0.367385
-0.380403
-0.408102
-0.453473
-0.511436
-0.561811
-0.566357
-0.536482
-0.487657
-0.429084
-0.366726
-0.304381
-0.244534
-0.188847
-0.138473
-0.094334
-0.057486
-0.029488
-0.012070
-0.005473
-0.006873
-0.011817
-0.017928
-0.022200
-0.025479
-0.028863
-0.033290
-0.039695
-0.048712
-0.060193
-0.072869
-0.084499
-0.092592
-0.095382
-0.090585
-0.079502
-0.065513
-0.050208
-0.034867
-0.020415
-0.007458
0.003648
0.012718
0.019642
0.024260
0.026281
0.025371
0.021455
0.015056
0.007331
-0.000314
-0.006727
-0.011087
-0.012936
-0.012642
-0.010740
-0.007818
-0.004441
-0.001095
0.001852
0.004173
0.005803
0.006824
0.007429
0.007858
0.008311
0.009026
0.010149
0.011358
0.012490
0.013401
0.013964
0.014074
0.013648
0.012615
0.010910
0.008465
0.005206
0.001040
-0.004147
-0.010497
-0.018181
-0.027407
-0.038432
-0.055219
0.400729
0.403685
0.412202
0.426861
0.448636
0.478780
0.518181
0.563923
0.652133
0.015123
-0.466964
-0.396247
-0.398854
-0.394102
-0.388793
-0.388790
-0.399157
-0.420537
-0.456953
-0.506105
-0.552000
-0.571226
-0.544784
-0.498076
-0.441787
-0.381600
-0.321083
-0.262785
-0.208627
-0.160171
-0.118929
-0.086698
-0.065488
-0.056309
-0.057236
-0.063351
-0.069749
-0.073232
-0.072127
-0.068230
-0.063204
-0.058482
-0.055331
-0.054773
-0.057306
-0.062537
-0.069045
-0.074762
-0.077689
-0.076376
-0.069725
-0.059584
-0.047559
-0.034887
-0.022535
-0.011230
-0.001478
0.006372
0.012032
0.015162
0.015336
0.012232
0.006004
-0.002442
-0.011613
-0.019940
-0.026260
-0.029826
-0.030215
-0.027904
-0.023582
-0.018000
-0.011872
-0.005806
-0.000280
0.004380
0.008003
0.010584
0.012259
0.013263
0.013867
0.014319
0.014871
0.015632
0.016394
0.017066
0.017534
0.017685
0.017418
0.016642
0.015271
0.013223
0.010410
0.006728
0.002054
-0.003761
-0.010897
-0.019570
-0.030046
-0.046192
0.419873
0.423653
0.434653
0.453978
0.483732
0.527564
0.591801
0.687029
0.817797
0.838715
0.000000
-0.400060
-0.403872
-0.407728
-0.411931
-0.418929
-0.429226
-0.444753
-0.467714
-0.496518
-0.522283
-0.531986
-0.516830
-0.475381
-0.426084
-0.373436
-0.320294
-0.269069
-0.221833
-0.180507
-0.147153
-0.124079
-0.113003
-0.113086
-0.119923
-0.127522
-0.131364
-0.128491
-0.119647
-0.107168
-0.093162
-0.079402
-0.067330
-0.058083
-0.052431
-0.050545
-0.051726
-0.054445
-0.056848
-0.057448
-0.054718
-0.048389
-0.040115
-0.030806
-0.021357
-0.012535
-0.004955
0.000894
0.004553
0.005515
0.003268
-0.002422
-0.011114
-0.021554
-0.032001
-0.040806
-0.046820
-0.049275
-0.047841
-0.043157
-0.036110
-0.027655
-0.018673
-0.009899
-0.001891
0.004968
0.010462
0.014539
0.017297
0.018965
0.019847
0.020263
0.020500
0.020765
0.021124
0.021502
0.021804
0.021925
0.021754
0.021188
0.020130
0.018484
0.016152
0.013026
0.008978
0.003860
-0.002501
-0.010309
-0.019812
-0.034530
0.432107
0.436184
0.448029
0.468734
0.500227
0.545301
0.607194
0.687343
0.779467
0.859634
0.765400
0.000000
-0.412864
-0.421856
-0.435600
-0.453579
-0.471312
-0.484117
-0.489571
-0.489676
-0.484595
-0.470776
-0.451232
-0.420518
-0.379665
-0.337319
-0.295137
-0.255196
-0.219529
-0.190297
-0.169980
-0.160843
-0.163080
-0.173104
-0.184582
-0.191662
-0.190417
-0.178506
-0.160443
-0.138720
-0.115756
-0.093565
-0.073679
-0.057201
-0.044878
-0.037067
-0.033523
-0.033227
-0.034563
-0.035834
-0.035654
-0.033204
-0.028696
-0.022951
-0.016771
-0.010911
-0.006041
-0.002764
-0.001687
-0.003450
-0.008595
-0.017198
-0.028520
-0.041002
-0.052724
-0.061969
-0.067592
-0.068713
-0.065169
-0.057822
-0.047812
-0.036328
-0.024442
-0.013016
-0.002675
0.006179
0.013334
0.018738
0.022486
0.024805
0.026017
0.026482
0.026533
0.026454
0.026479
0.026576
0.026698
0.026759
0.026653
0.026272
0.025511
0.024271
0.022448
0.019933
0.016605
0.012327
0.006949
0.000302
-0.007813
-0.020339
0.436890
0.440735
0.451835
0.470918
0.499159
0.538057
0.588546
0.648557
0.704646
0.718917
0.671166
0.547194
0.000000
-0.441291
-0.460725
-0.503889
-0.535358
-0.546100
-0.527072
-0.489661
-0.446568
-0.405232
-0.367905
-0.333538
-0.303203
-0.271241
-0.241150
-0.214960
-0.194669
-0.182560
-0.180964
-0.190722
-0.209049
-0.229462
-0.244663
-0.249744
-0.239442
-0.218671
-0.191359
-0.160775
-0.129685
-0.100248
-0.074000
-0.051932
-0.034630
-0.022378
-0.015105
-0.012168
-0.012286
-0.013844
-0.015435
-0.015738
-0.014413
-0.011959
-0.008985
-0.006178
-0.004230
-0.003829
-0.005706
-0.010590
-0.018983
-0.030761
-0.044884
-0.059535
-0.072630
-0.082367
-0.087571
-0.087182
-0.081337
-0.071168
-0.058096
-0.043563
-0.028838
-0.014906
-0.002443
0.008153
0.016708
0.023212
0.027791
0.030685
0.032227
0.032803
0.032797
0.032537
0.032269
0.032129
0.032099
0.032111
0.032071
0.031871
0.031409
0.030582
0.029290
0.027430
0.024897
0.021578
0.017362
0.012136
0.005778
-0.003879
0.434645
0.437922
0.447296
0.463104
0.485733
0.515144
0.549916
0.584888
0.606895
0.590444
0.517578
0.423223
0.245984
0.000000
-0.518556
-0.576387
-0.613963
-0.616179
-0.565842
-0.489279
-0.408170
-0.335889
-0.278332
-0.234944
-0.203175
-0.179842
-0.161172
-0.150103
-0.148574
-0.158335
-0.180139
-0.211781
-0.246971
-0.277084
-0.294665
-0.295056
-0.275322
-0.245644
-0.210027
-0.172045
-0.134588
-0.099788
-0.069055
-0.043195
-0.022576
-0.007309
0.002689
0.007819
0.009007
0.007654
0.005253
0.002980
0.001743
0.001438
0.001596
0.001586
0.000703
-0.001817
-0.006795
-0.014998
-0.026826
-0.041915
-0.058943
-0.075859
-0.090411
-0.100675
-0.105417
-0.103407
-0.095212
-0.082253
-0.066235
-0.048845
-0.031532
-0.015387
-0.001121
0.010895
0.020546
0.027893
0.033115
0.036477
0.038322
0.039046
0.039053
0.038702
0.038273
0.037988
0.037868
0.037876
0.037930
0.037933
0.037783
0.037383
0.036642
0.035471
0.033787
0.031516
0.028602
0.025009
0.020713
0.014487
0.426402
0.428874
0.435849
0.447262
0.462776
0.481310
0.500159
0.513443
0.510078
0.472341
0.381894
0.228068
0.068745
-0.386805
-0.684635
-0.624575
-0.662541
-0.642417
-0.571036
-0.471270
-0.365077
-0.269893
-0.195099
-0.140632
-0.102214
-0.079673
-0.070331
-0.074350
-0.093272
-0.126761
-0.172430
-0.224490
-0.273927
-0.311078
-0.329003
-0.319381
-0.292986
-0.256520
-0.214945
-0.172109
-0.130868
-0.093171
-0.060187
-0.032477
-0.010177
0.006805
0.018640
0.025600
0.028258
0.027649
0.025119
0.021924
0.018849
0.016494
0.014437
0.012072
0.008673
0.003408
-0.004601
-0.016097
-0.031326
-0.049667
-0.069535
-0.088665
-0.104634
-0.115377
-0.119596
-0.115917
-0.105503
-0.090022
-0.071431
-0.051628
-0.032207
-0.014333
0.001277
0.014295
0.024682
0.032584
0.038244
0.041965
0.044090
0.045005
0.045111
0.044787
0.044347
0.043984
0.043853
0.043923
0.044125
0.044368
0.044558
0.044607
0.044435
0.043973
0.043172
0.042007
0.040492
0.038684
0.036679
0.034334
0.413621
0.415200
0.419564
0.426362
0.434801
0.443251
0.448606
0.445340
0.424440
0.372468
0.271372
0.095721
-0.209006
-0.842355
-0.744694
-0.644188
-0.630656
-0.592855
-0.518073
-0.419194
-0.313382
-0.215818
-0.135751
-0.074313
-0.028093
0.002065
0.007331
-0.009134
-0.046435
-0.099998
-0.163906
-0.229730
-0.287119
-0.326264
-0.338748
-0.322123
-0.290756
-0.250499
-0.206290
-0.161873
-0.119871
-0.081947
-0.048991
-0.021323
0.001123
0.018611
0.031438
0.039851
0.044156
0.044935
0.043133
0.039825
0.035969
0.032416
0.028856
0.024720
0.019260
0.011597
0.000835
-0.013690
-0.032030
-0.053311
-0.075711
-0.096781
-0.113940
-0.124984
-0.128557
-0.123296
-0.110995
-0.093504
-0.072970
-0.051445
-0.030619
-0.011684
0.004665
0.018164
0.028861
0.036990
0.042866
0.046828
0.049217
0.050388
0.050709
0.050541
0.050192
0.049912
0.049884
0.050106
0.050522
0.051055
0.051620
0.052141
0.052551
0.052809
0.052902
0.052866
0.052796
0.052861
0.053293
0.055176
0.397925
0.398652
0.400559
0.403146
0.405416
0.405598
0.400728
0.386117
0.354798
0.297020
0.199606
0.044680
-0.191940
-0.498137
-0.564668
-0.556662
-0.536328
-0.498577
-0.437203
-0.357855
-0.271303
-0.188021
-0.114931
-0.054279
-0.006401
0.029678
0.042743
0.020918
-0.025568
-0.088292
-0.159053
-0.228062
-0.284589
-0.319306
-0.321210
-0.302192
-0.269621
-0.229465
-0.186385
-0.143770
-0.103892
-0.068111
-0.037088
-0.010983
0.010375
0.027342
0.040315
0.049610
0.055439
0.058053
0.057905
0.055656
0.052075
0.048231
0.043915
0.038641
0.031666
0.022093
0.009052
-0.007998
-0.028897
-0.052539
-0.076909
-0.099407
-0.117334
-0.128383
-0.131076
-0.124496
-0.110834
-0.092048
-0.070406
-0.048045
-0.026684
-0.007497
0.008883
0.022272
0.032807
0.040804
0.046645
0.050706
0.053326
0.054819
0.055493
0.055658
0.055597
0.055560
0.055772
0.056247
0.056953
0.057832
0.058811
0.059825
0.060826
0.061798
0.062773
0.063852
0.065221
0.067173
0.070094
0.076447
0.380870
0.380861
0.380676
0.379773
0.377146
0.371143
0.359231
0.337740
0.301671
0.244671
0.159316
0.038353
-0.119915
-0.294631
-0.387879
-0.421716
-0.422199
-0.398841
-0.356729
-0.300104
-0.235919
-0.171220
-0.111282
-0.059006
-0.015007
0.018650
0.027907
0.009235
-0.033008
-0.091265
-0.156258
-0.217586
-0.264648
-0.287468
-0.284289
-0.265090
-0.234848
-0.198397
-0.159657
-0.121494
-0.085819
-0.053763
-0.025864
-0.002233
0.017304
0.033088
0.045526
0.054989
0.061742
0.065945
0.067740
0.067325
0.065555
0.062467
0.058230
0.052537
0.044704
0.033858
0.019203
0.000350
-0.022333
-0.047540
-0.073104
-0.096331
-0.114471
-0.125252
-0.126598
-0.119171
-0.104786
-0.085523
-0.063713
-0.041498
-0.020555
-0.001980
0.013691
0.026371
0.036279
0.043796
0.049352
0.053348
0.056119
0.057944
0.059067
0.059725
0.060142
0.060622
0.061249
0.062102
0.063190
0.064480
0.065914
0.067442
0.069034
0.070702
0.072524
0.074666
0.077412
0.081181
0.086531
0.097460
0.363797
0.363201
0.361364
0.357781
0.351549
0.341270
0.324946
0.299894
0.262783
0.209881
0.137722
0.044631
-0.065769
-0.179371
-0.260236
-0.304803
-0.320337
-0.313216
-0.288553
-0.251206
-0.206169
-0.158451
-0.112177
-0.070223
-0.033999
-0.009758
-0.003583
-0.018053
-0.051084
-0.097141
-0.148264
-0.195090
-0.228262
-0.240648
-0.236956
-0.220461
-0.195016
-0.164343
-0.131565
-0.099041
-0.068395
-0.040623
-0.016229
0.004652
0.022136
0.036501
0.048103
0.057303
0.064398
0.069571
0.072907
0.074465
0.074959
0.073453
0.070169
0.064877
0.056962
0.045622
0.030172
0.010395
-0.013152
-0.038999
-0.064873
-0.088029
-0.105722
-0.115754
-0.115835
-0.107876
-0.093356
-0.074413
-0.053355
-0.032247
-0.012644
0.004497
0.018773
0.030207
0.039094
0.045856
0.050940
0.054743
0.057586
0.059710
0.061305
0.062536
0.063625
0.064789
0.065994
0.067363
0.068942
0.070718
0.072656
0.074719
0.076897
0.079233
0.081844
0.084962
0.088959
0.094378
0.101953
0.117356
0.347782
0.346744
0.343681
0.338164
0.329447
0.316426
0.297616
0.271168
0.235002
0.187125
0.126257
0.052904
-0.028949
-0.110301
-0.175802
-0.219436
-0.241767
-0.245627
-0.234393
-0.211666
-0.181452
-0.147536
-0.113261
-0.081129
-0.054423
-0.036967
-0.032350
-0.042258
-0.065495
-0.098120
-0.134061
-0.166157
-0.187626
-0.195680
-0.192214
-0.178959
-0.158500
-0.133549
-0.106520
-0.079342
-0.053412
-0.029640
-0.008521
0.009767
0.025283
0.038240
0.048940
0.057711
0.064850
0.070560
0.074911
0.078454
0.080418
0.080571
0.078737
0.074512
0.067254
0.056218
0.040838
0.021052
-0.002421
-0.027988
-0.053307
-0.075618
-0.092210
-0.100935
-0.100100
-0.091852
-0.077706
-0.059774
-0.040264
-0.021080
-0.003590
0.011439
0.023768
0.033542
0.041125
0.046960
0.051478
0.055044
0.057933
0.060340
0.062398
0.064252
0.066134
0.067940
0.069791
0.071775
0.073932
0.076263
0.078745
0.081358
0.084111
0.087073
0.090400
0.094372
0.099432
0.106224
0.115630
0.135044
0.333634
0.332277
0.328347
0.321506
0.311174
0.296525
0.276503
0.249894
0.215478
0.172315
0.120206
0.060340
-0.003961
-0.066877
-0.120632
-0.160466
-0.185058
-0.195240
-0.193008
-0.180718
-0.161408
-0.138046
-0.113378
-0.089940
-0.070483
-0.057663
-0.053735
-0.059727
-0.074836
-0.096347
-0.120042
-0.141053
-0.155054
-0.160308
-0.156982
-0.146123
-0.129457
-0.108944
-0.086449
-0.063552
-0.041460
-0.020997
-0.002645
0.013404
0.027175
0.038845
0.048679
0.056982
0.064042
0.070094
0.075301
0.079769
0.082910
0.084481
0.084109
0.081226
0.075099
0.064988
0.050401
0.031392
0.008793
-0.015719
-0.039765
-0.060605
-0.075600
-0.082729
-0.081107
-0.072865
-0.059530
-0.043137
-0.025740
-0.009036
0.005833
0.018312
0.028346
0.036210
0.042336
0.047176
0.051124
0.054480
0.057452
0.060168
0.062714
0.065252
0.067706
0.070145
0.072642
0.075256
0.078015
0.080919
0.083951
0.087105
0.090405
0.093938
0.097888
0.102565
0.108448
0.116222
0.126841
0.149153
0.321936
0.320348
0.315818
0.308106
0.296781
0.281244
0.260766
0.234581
0.202021
0.162749
0.117066
0.066281
0.013022
-0.038767
-0.084458
-0.120583
-0.145498
-0.159132
-0.162517
-0.157367
-0.145766
-0.130110
-0.112702
-0.095782
-0.081506
-0.071839
-0.068294
-0.071519
-0.080951
-0.094747
-0.110057
-0.123636
-0.132690
-0.135577
-0.131964
-0.122449
-0.108210
-0.090700
-0.071396
-0.051611
-0.032391
-0.014481
0.001672
0.015884
0.028176
0.038717
0.047767
0.055619
0.062557
0.068815
0.074602
0.079638
0.083679
0.086390
0.087285
0.085702
0.080847
0.071966
0.058598
0.040859
0.019648
-0.003309
-0.025625
-0.044612
-0.057790
-0.063016
-0.061074
-0.053185
-0.040968
-0.026386
-0.011324
0.002724
0.014830
0.024648
0.032297
0.038188
0.042831
0.046694
0.050126
0.053349
0.056476
0.059546
0.062612
0.065633
0.068636
0.071658
0.074743
0.077930
0.081236
0.084661
0.088195
0.091836
0.095620
0.099647
0.104110
0.109325
0.115754
0.124040
0.135057
0.158176
0.313112
0.311326
0.306362
0.298085
0.286177
0.270200
0.249654
0.224061
0.193092
0.156736
0.115509
0.070668
0.024325
-0.020647
-0.061084
-0.094375
-0.118969
-0.134434
-0.141276
-0.140684
-0.134281
-0.123945
-0.111623
-0.099204
-0.088449
-0.080888
-0.077632
-0.079139
-0.085014
-0.093965
-0.103992
-0.112814
-0.118480
-0.119447
-0.115317
-0.106412
-0.093576
-0.077945
-0.060733
-0.043065
-0.025864
-0.009804
0.004706
0.017497
0.028602
0.038203
0.046572
0.054018
0.060837
0.067273
0.073363
0.078914
0.083716
0.087382
0.089359
0.088925
0.085260
0.077607
0.065524
0.049161
0.029455
0.008160
-0.012347
-0.029441
-0.040760
-0.044953
-0.042874
-0.035496
-0.024438
-0.011572
0.001358
0.013027
0.022672
0.030105
0.035590
0.039661
0.042921
0.045876
0.048856
0.052017
0.055374
0.058797
0.062258
0.065742
0.069241
0.072768
0.076348
0.080005
0.083755
0.087598
0.091529
0.095557
0.099724
0.104137
0.108985
0.114560
0.121256
0.129574
0.140127
0.161113
0.307530
0.305440
0.300105
0.291454
0.279220
0.263053
0.242585
0.217510
0.187684
0.153262
0.114842
0.073601
0.031331
-0.009676
-0.046966
-0.078419
-0.102621
-0.119015
-0.127841
-0.129981
-0.126754
-0.119742
-0.110615
-0.101013
-0.092443
-0.086179
-0.083128
-0.083663
-0.087498
-0.093659
-0.100621
-0.106615
-0.110061
-0.109717
-0.105130
-0.096479
-0.084417
-0.069892
-0.053952
-0.037599
-0.021674
-0.006801
0.006637
0.018484
0.028778
0.037706
0.045552
0.052644
0.059315
0.065869
0.072174
0.078187
0.083651
0.088131
0.091013
0.091532
0.088842
0.082183
0.071129
0.055856
0.037334
0.017343
-0.001753
-0.017432
-0.027514
-0.031336
-0.029301
-0.022429
-0.012309
-0.000727
0.010679
0.020684
0.028621
0.034383
0.038312
0.041017
0.043168
0.045331
0.047870
0.050953
0.054447
0.058133
0.061962
0.065846
0.069748
0.073664
0.077610
0.081607
0.085666
0.089794
0.093992
0.098274
0.102693
0.107356
0.112444
0.118208
0.124946
0.132949
0.142429
0.158514
0.305759
0.302759
0.297046
0.288172
0.275791
0.259569
0.239196
0.214437
0.185230
0.151792
0.114743
0.075207
0.034820
-0.004376
-0.040220
-0.070803
-0.094791
-0.111587
-0.121325
-0.124750
-0.123038
-0.117623
-0.110038
-0.101790
-0.094258
-0.088601
-0.085640
-0.085725
-0.088631
-0.093528
-0.099108
-0.103864
-0.106350
-0.105402
-0.100602
-0.092074
-0.080383
-0.066381
-0.051034
-0.035281
-0.019921
-0.005553
0.007451
0.018935
0.028934
0.037627
0.045293
0.052253
0.058806
0.065122
0.071573
0.077955
0.083932
0.089016
0.092545
0.093713
0.091639
0.085547
0.075002
0.060196
0.042136
0.022657
0.004151
-0.010963
-0.020922
-0.024743
-0.022857
-0.016342
-0.006749
0.004205
0.014945
0.024292
0.031602
0.036775
0.040153
0.042346
0.044034
0.045796
0.048002
0.050754
0.054062
0.057899
0.061963
0.066096
0.070236
0.074371
0.078515
0.082687
0.086900
0.091161
0.095472
0.099854
0.104361
0.109105
0.114265
0.120067
0.126739
0.134405
0.142919
0.153754
