# vtk DataFile Version 3.0
Scalar Field
ASCII
DATASET RECTILINEAR_GRID
DIMENSIONS 100 26 1
X_COORDINATES 100 double
0.050000 0.150000 0.250000 0.350000 0.450000 0.550000 0.650000 0.750000 0.850000 0.950000 1.050000 1.150000 1.250000 1.350000 1.450000 1.550000 1.650000 1.750000 1.850000 1.950000 2.050000 2.150000 2.250000 2.350000 2.450000 2.550000 2.650000 2.750000 2.850000 2.950000 3.050000 3.150000 3.250000 3.350000 3.450000 3.550000 3.650000 3.750000 3.850000 3.950000 4.050000 4.150000 4.250000 4.350000 4.450000 4.550000 4.650000 4.750000 4.850000 4.950000 5.050000 5.150000 5.250000 5.350000 5.450000 5.550000 5.650000 5.750000 5.850000 5.950000 6.050000 6.150000 6.250000 6.350000 6.450000 6.550000 6.650000 6.750000 6.850000 6.950000 7.050000 7.150000 7.250000 7.350000 7.450000 7.550000 7.650000 7.750000 7.850000 7.950000 8.050000 8.150000 8.250000 8.350000 8.450000 8.550000 8.650000 8.750000 8.850000 8.950000 9.050000 9.150000 9.250000 9.350000 9.450000 9.550000 9.650000 9.750000 9.850000 9.950000 
Y_COORDINATES 26 double
0.050000 0.150000 0.250000 0.350000 0.450000 0.550000 0.650000 0.750000 0.850000 0.950000 1.050000 1.150000 1.250000 1.350000 1.450000 1.550000 1.650000 1.750000 1.850000 1.950000 2.050000 2.150000 2.250000 2.350000 2.450000 2.550000 
Z_COORDINATES 1 double
0.0
POINT_DATA 2600
SCALARS Skalarfeld double 1
LOOKUP_TABLE default
0.180295
0.176331
0.167859
0.154452
0.135834
0.111844
0.082522
0.048242
0.009850
-0.031270
-0.073267
-0.114088
-0.151785
-0.184737
-0.211745
-0.232038
-0.245262
-0.251268
-0.250427
-0.243407
-0.231105
-0.214567
-0.194899
-0.173186
-0.150428
-0.127509
-0.105189
-0.084122
-0.064908
-0.048039
-0.033990
-0.023315
-0.016416
-0.013371
-0.013756
-0.016600
-0.020529
-0.024102
-0.026096
-0.025550
-0.022358
-0.016823
-0.009522
-0.001155
0.007578
0.016075
0.023876
0.030689
0.036392
0.041021
0.044740
0.047816
0.050567
0.053302
0.056220
0.059604
0.063447
0.067521
0.071553
0.075209
0.078083
0.079707
0.079596
0.077372
0.072949
0.066708
0.059548
0.052734
0.047502
0.044846
0.045006
0.047557
0.051739
0.056631
0.061360
0.065286
0.068129
0.069999
0.071320
0.072658
0.074502
0.077108
0.080459
0.084423
0.088912
0.093783
0.099118
0.105116
0.112029
0.120121
0.129616
0.140691
0.153460
0.167993
0.184342
0.202601
0.222965
0.245793
0.271639
0.310522
0.183845
0.180743
0.172504
0.159052
0.140150
0.115587
0.085333
0.049724
0.009652
-0.033339
-0.077123
-0.119412
-0.158159
-0.191771
-0.219127
-0.239524
-0.252623
-0.258316
-0.256947
-0.249207
-0.236028
-0.218503
-0.197786
-0.175009
-0.151216
-0.127321
-0.104106
-0.082233
-0.062276
-0.044842
-0.030577
-0.020032
-0.013617
-0.011386
-0.012846
-0.016894
-0.021981
-0.026448
-0.028997
-0.028725
-0.025529
-0.019789
-0.012166
-0.003429
0.005678
0.014523
0.022637
0.029724
0.035666
0.040502
0.044401
0.047634
0.050517
0.053371
0.056480
0.059833
0.063412
0.067105
0.070702
0.073923
0.076409
0.077728
0.077413
0.075079
0.070596
0.064265
0.056902
0.049755
0.044266
0.041504
0.041570
0.044132
0.048432
0.053527
0.058514
0.062739
0.065916
0.068155
0.069876
0.071622
0.073841
0.076748
0.080325
0.084381
0.088695
0.093314
0.098374
0.104084
0.110706
0.118511
0.127715
0.138493
0.150955
0.165167
0.181177
0.199075
0.219053
0.241474
0.266916
0.305468
0.193069
0.190188
0.182069
0.168507
0.149130
0.123532
0.091476
0.053162
0.009535
-0.037526
-0.085193
-0.130596
-0.171502
-0.206422
-0.234443
-0.255034
-0.267967
-0.273015
-0.270567
-0.261351
-0.246362
-0.226776
-0.203847
-0.178808
-0.152793
-0.126798
-0.101669
-0.078120
-0.056786
-0.038356
-0.023600
-0.013225
-0.007754
-0.007250
-0.011072
-0.017813
-0.025498
-0.032057
-0.035956
-0.036232
-0.032970
-0.026750
-0.018408
-0.008847
0.001107
0.010775
0.019667
0.027486
0.034113
0.039587
0.044071
0.047808
0.051072
0.054125
0.057176
0.060328
0.063554
0.066739
0.069731
0.072314
0.074205
0.075029
0.074341
0.071734
0.067018
0.060392
0.052560
0.044697
0.038251
0.034553
0.034276
0.036733
0.041200
0.046734
0.052411
0.057538
0.061777
0.065158
0.067994
0.070697
0.073602
0.076861
0.080455
0.084278
0.088245
0.092407
0.096915
0.102034
0.108082
0.115330
0.123971
0.134184
0.146086
0.159731
0.175155
0.192427
0.211717
0.233361
0.257919
0.294452
0.207547
0.204767
0.196768
0.183141
0.163229
0.136243
0.101505
0.058860
0.009250
-0.044914
-0.099159
-0.149487
-0.193506
-0.230132
-0.258925
-0.279643
-0.292151
-0.296117
-0.291953
-0.280402
-0.262550
-0.239714
-0.213312
-0.184737
-0.155275
-0.126047
-0.097999
-0.071915
-0.048459
-0.028399
-0.012794
-0.002631
0.001310
-0.001086
-0.008937
-0.020286
-0.032387
-0.042358
-0.048036
-0.048844
-0.045177
-0.037956
-0.028303
-0.017324
-0.005971
0.005021
0.015141
0.024090
0.031753
0.038162
0.043456
0.047843
0.051554
0.054811
0.057791
0.060597
0.063366
0.065970
0.068237
0.070026
0.071161
0.071359
0.070225
0.067356
0.062505
0.055759
0.047661
0.039230
0.031811
0.026737
0.025415
0.027527
0.032001
0.037951
0.044439
0.050708
0.056313
0.061144
0.065341
0.069159
0.072823
0.076458
0.080082
0.083662
0.087190
0.090746
0.094524
0.098811
0.103936
0.110263
0.118097
0.127514
0.138651
0.151553
0.166229
0.182716
0.201137
0.221762
0.245059
0.278847
0.227093
0.224460
0.216776
0.203378
0.183177
0.154728
0.116510
0.067535
0.008466
-0.057696
-0.122306
-0.179382
-0.226929
-0.265080
-0.294400
-0.315034
-0.326722
-0.329138
-0.322530
-0.307610
-0.285606
-0.258075
-0.226691
-0.193091
-0.158771
-0.125034
-0.092967
-0.063441
-0.037117
-0.014706
0.002204
0.012167
0.013931
0.007273
-0.006582
-0.024901
-0.043784
-0.058999
-0.067154
-0.068146
-0.063371
-0.054259
-0.042389
-0.029167
-0.015707
-0.002812
0.009001
0.019444
0.028415
0.035950
0.042178
0.047288
0.051489
0.054980
0.057907
0.060335
0.062247
0.064019
0.065380
0.066153
0.066332
0.065799
0.064256
0.061322
0.056694
0.050320
0.042546
0.034168
0.026353
0.020409
0.017470
0.018720
0.022831
0.028881
0.035925
0.043143
0.049971
0.056134
0.061597
0.066458
0.070849
0.074861
0.078533
0.081869
0.084902
0.087747
0.090636
0.093910
0.097962
0.103173
0.109913
0.118357
0.128594
0.140646
0.154491
0.170117
0.187583
0.207068
0.228909
0.259717
0.251434
0.249098
0.242161
0.229668
0.209953
0.180567
0.138444
0.080708
0.006797
-0.080473
-0.160683
-0.225304
-0.275086
-0.313308
-0.342414
-0.362842
-0.373405
-0.374018
-0.364235
-0.344713
-0.316969
-0.282965
-0.244774
-0.204377
-0.163555
-0.123856
-0.086579
-0.052755
-0.023094
0.002195
0.020948
0.030987
0.030268
0.018513
-0.002592
-0.029554
-0.057368
-0.080245
-0.093002
-0.094221
-0.087685
-0.075782
-0.060763
-0.044457
-0.028185
-0.012819
0.001122
0.013379
0.023879
0.032678
0.039917
0.045785
0.050487
0.054199
0.057020
0.058952
0.059947
0.060002
0.059891
0.059378
0.058446
0.057233
0.055534
0.052952
0.049095
0.043757
0.037067
0.029561
0.022160
0.016008
0.012180
0.011854
0.015319
0.021005
0.028098
0.035766
0.043352
0.050439
0.056828
0.062480
0.067427
0.071717
0.075374
0.078413
0.080884
0.082928
0.084820
0.086962
0.089821
0.093844
0.099381
0.106740
0.115996
0.127148
0.140134
0.154888
0.171390
0.189714
0.210054
0.237920
0.280022
0.278223
0.272731
0.262325
0.244703
0.216057
0.170720
0.101673
0.003860
-0.123422
-0.224628
-0.292857
-0.339247
-0.373693
-0.401466
-0.422609
-0.433037
-0.432381
-0.418935
-0.393475
-0.358161
-0.315654
-0.268612
-0.219468
-0.170368
-0.123175
-0.079499
-0.040700
-0.007779
0.019285
0.040275
0.051042
0.048138
0.031711
0.004249
-0.030194
-0.066240
-0.097554
-0.118092
-0.122371
-0.114377
-0.099740
-0.081468
-0.061897
-0.042608
-0.024570
-0.008324
0.005885
0.018006
0.028116
0.036371
0.042968
0.048106
0.051915
0.054409
0.055497
0.055116
0.053426
0.050874
0.048685
0.046729
0.045194
0.043826
0.042149
0.039669
0.036031
0.031151
0.025306
0.019146
0.013605
0.009696
0.008266
0.010531
0.015369
0.021941
0.029440
0.037166
0.044602
0.051425
0.057471
0.062677
0.067027
0.070512
0.073135
0.074945
0.076103
0.076924
0.077871
0.079479
0.082260
0.086599
0.092809
0.101044
0.111279
0.123416
0.137326
0.152908
0.170121
0.189015
0.214126
0.311869
0.310915
0.307795
0.301186
0.288353
0.264111
0.219077
0.137832
-0.000724
-0.210011
-0.328820
-0.382427
-0.412090
-0.435854
-0.461332
-0.487369
-0.502584
-0.503106
-0.486285
-0.453904
-0.409485
-0.356782
-0.299218
-0.239764
-0.180983
-0.125118
-0.074189
-0.030103
0.005321
0.030853
0.050582
0.062597
0.057683
0.037914
0.007604
-0.029095
-0.067750
-0.102940
-0.128826
-0.141069
-0.134791
-0.119523
-0.099613
-0.078022
-0.056630
-0.036564
-0.018448
-0.002582
0.010950
0.022203
0.031317
0.038473
0.043822
0.047401
0.049087
0.048707
0.046311
0.042418
0.037938
0.033983
0.031422
0.030124
0.029660
0.029441
0.028872
0.027468
0.024964
0.021395
0.017143
0.012899
0.009529
0.007855
0.008614
0.012446
0.018058
0.024819
0.032067
0.039245
0.045948
0.051915
0.056996
0.061106
0.064188
0.066217
0.067232
0.067407
0.067090
0.066794
0.067117
0.068626
0.071760
0.076791
0.083983
0.093308
0.104627
0.117749
0.132482
0.148672
0.166224
0.188831
0.345427
0.345625
0.345850
0.345024
0.340652
0.327164
0.291955
0.206388
-0.002153
-0.398117
-0.484193
-0.475889
-0.471766
-0.477731
-0.499339
-0.536167
-0.569896
-0.576914
-0.558600
-0.520003
-0.466867
-0.404272
-0.336441
-0.266897
-0.198674
-0.134499
-0.076917
-0.028474
0.007961
0.030115
0.039414
0.043425
0.036304
0.019342
-0.005374
-0.035494
-0.068196
-0.099574
-0.124888
-0.139963
-0.141441
-0.128346
-0.109602
-0.088453
-0.066967
-0.046432
-0.027622
-0.010970
0.003321
0.015210
0.024757
0.032058
0.037153
0.039927
0.040130
0.037633
0.032813
0.026714
0.020709
0.015917
0.013414
0.012951
0.013934
0.015654
0.017410
0.018607
0.018832
0.017918
0.016006
0.013546
0.011222
0.009784
0.009851
0.012327
0.016660
0.022254
0.028515
0.034898
0.040961
0.046379
0.050930
0.054463
0.056870
0.058088
0.058144
0.057215
0.055673
0.054071
0.053056
0.053245
0.055127
0.058994
0.065122
0.073548
0.084089
0.096485
0.110447
0.125706
0.142033
0.162385
0.378594
0.380134
0.384356
0.390861
0.398454
0.403665
0.396150
0.342831
0.096154
-0.751828
-0.661031
-0.525636
-0.495251
-0.486536
-0.502781
-0.547445
-0.603124
-0.629667
-0.614546
-0.574619
-0.517755
-0.450028
-0.376302
-0.300666
-0.226817
-0.158436
-0.099510
-0.053944
-0.023921
-0.008701
-0.004756
-0.008821
-0.014254
-0.023172
-0.036096
-0.052894
-0.072731
-0.093590
-0.112246
-0.125137
-0.129722
-0.123340
-0.108325
-0.090189
-0.070929
-0.051898
-0.034011
-0.017873
-0.003863
0.007814
0.017068
0.023846
0.028016
0.029298
0.027396
0.022398
0.015161
0.007240
0.000290
-0.004566
-0.006348
-0.005399
-0.002458
0.001622
0.006023
0.010043
0.013153
0.015039
0.015648
0.015221
0.014259
0.013405
0.013276
0.014492
0.017556
0.021766
0.026706
0.031899
0.036909
0.041378
0.045034
0.047669
0.049126
0.049308
0.048222
0.046043
0.043163
0.040163
0.037728
0.036525
0.037094
0.039778
0.044823
0.052360
0.062158
0.073878
0.087132
0.101533
0.116727
0.135018
0.408926
0.411755
0.419872
0.433762
0.454200
0.482054
0.517371
0.555251
0.631687
-0.060071
-0.581141
-0.501250
-0.498062
-0.494275
-0.506897
-0.544163
-0.594739
-0.635102
-0.631357
-0.597053
-0.544552
-0.480015
-0.408677
-0.335204
-0.264169
-0.200354
-0.148616
-0.112732
-0.092790
-0.084520
-0.082799
-0.083308
-0.080687
-0.077626
-0.075920
-0.076780
-0.080851
-0.087838
-0.096189
-0.103378
-0.106851
-0.104982
-0.095972
-0.082575
-0.067353
-0.051561
-0.036175
-0.021941
-0.009415
0.001012
0.009064
0.014494
0.016975
0.016093
0.011613
0.003967
-0.005482
-0.014794
-0.022190
-0.026594
-0.027065
-0.024147
-0.018759
-0.011930
-0.004629
0.002329
0.008328
0.012957
0.016043
0.017670
0.018184
0.018126
0.018108
0.018690
0.020366
0.023115
0.026581
0.030362
0.034052
0.037290
0.039771
0.041247
0.041519
0.040457
0.038051
0.034474
0.030127
0.025613
0.021655
0.018968
0.018149
0.019596
0.023532
0.030174
0.039238
0.050300
0.062868
0.076439
0.090541
0.106877
0.434082
0.437858
0.448828
0.468074
0.497674
0.541262
0.605196
0.700419
0.834063
0.867686
0.000000
-0.502693
-0.504136
-0.502987
-0.513576
-0.538811
-0.571141
-0.598047
-0.603475
-0.577409
-0.534008
-0.479131
-0.418111
-0.355814
-0.297375
-0.248101
-0.212568
-0.192137
-0.182826
-0.178235
-0.173431
-0.162939
-0.147967
-0.131016
-0.114366
-0.099843
-0.088813
-0.082021
-0.079259
-0.079178
-0.079670
-0.078678
-0.074856
-0.066899
-0.056597
-0.045117
-0.033382
-0.022194
-0.012236
-0.004061
0.001873
0.005120
0.005163
0.001507
-0.005926
-0.016300
-0.027807
-0.038238
-0.045762
-0.049297
-0.047948
-0.042558
-0.034281
-0.024374
-0.013990
-0.004068
0.004706
0.011878
0.017218
0.020726
0.022641
0.023412
0.023596
0.023714
0.024403
0.025851
0.027877
0.030195
0.032458
0.034320
0.035464
0.035611
0.034531
0.032068
0.028199
0.023095
0.017162
0.011023
0.005434
0.001164
-0.001126
-0.000982
0.001794
0.007498
0.015789
0.026157
0.038002
0.050702
0.063674
0.078042
0.452339
0.456530
0.468699
0.489969
0.522364
0.568950
0.633508
0.717435
0.813120
0.901310
0.819527
0.000000
-0.507778
-0.511419
-0.511906
-0.521546
-0.534574
-0.543193
-0.538758
-0.515741
-0.479759
-0.436889
-0.391427
-0.348164
-0.312360
-0.288424
-0.277898
-0.276385
-0.276424
-0.272355
-0.257323
-0.233662
-0.204856
-0.173885
-0.143463
-0.115736
-0.092275
-0.074127
-0.061721
-0.054607
-0.051355
-0.049973
-0.048665
-0.045628
-0.040030
-0.033148
-0.025605
-0.018148
-0.011507
-0.006346
-0.003277
-0.002934
-0.005996
-0.012971
-0.023699
-0.036928
-0.050467
-0.061913
-0.069411
-0.071618
-0.068048
-0.059781
-0.048287
-0.035098
-0.021572
-0.008773
0.002556
0.011957
0.019205
0.024284
0.027385
0.028895
0.029339
0.029269
0.029159
0.029492
0.030221
0.031164
0.032036
0.032514
0.032279
0.031034
0.028526
0.024584
0.019173
0.012463
0.004867
-0.002977
-0.010279
-0.016218
-0.020064
-0.021297
-0.019760
-0.015084
-0.007666
0.001895
0.012893
0.024593
0.036305
0.048554
0.462939
0.466997
0.478709
0.498847
0.528627
0.569436
0.622315
0.686861
0.752070
0.774828
0.737745
0.622205
0.000000
-0.509501
-0.507583
-0.497847
-0.493106
-0.480692
-0.455871
-0.425690
-0.392944
-0.360587
-0.332833
-0.314247
-0.308712
-0.317178
-0.335297
-0.352529
-0.359608
-0.351771
-0.323951
-0.287284
-0.245398
-0.201910
-0.159926
-0.121782
-0.089047
-0.062677
-0.043140
-0.030364
-0.023499
-0.020890
-0.020482
-0.020351
-0.019259
-0.016732
-0.013349
-0.009785
-0.006768
-0.005027
-0.005303
-0.008396
-0.015096
-0.025841
-0.040167
-0.056404
-0.072021
-0.084435
-0.091749
-0.092297
-0.086166
-0.074773
-0.059932
-0.043463
-0.026926
-0.011497
0.002046
0.013270
0.022000
0.028258
0.032238
0.034304
0.034953
0.034740
0.034169
0.033566
0.033208
0.032963
0.032591
0.031792
0.030251
0.027658
0.023749
0.018338
0.011388
0.003068
-0.006203
-0.015771
-0.024820
-0.032477
-0.037949
-0.040652
-0.040436
-0.036927
-0.030561
-0.022011
-0.012083
-0.001615
0.008602
0.018438
0.466116
0.469620
0.479661
0.496637
0.521067
0.553239
0.592117
0.632787
0.662684
0.655086
0.592419
0.506664
0.339598
0.000000
-0.487663
-0.467742
-0.463203
-0.428771
-0.377359
-0.327781
-0.292672
-0.269254
-0.260060
-0.267108
-0.292772
-0.333955
-0.378470
-0.411256
-0.423045
-0.403487
-0.366462
-0.319268
-0.267108
-0.214256
-0.164049
-0.118827
-0.080025
-0.048374
-0.024150
-0.007303
0.002658
0.006904
0.007249
0.005638
0.003736
0.002809
0.002578
0.002563
0.002076
0.000352
-0.003463
-0.010297
-0.020983
-0.035792
-0.053897
-0.073213
-0.090897
-0.104181
-0.111114
-0.109716
-0.100860
-0.086332
-0.068289
-0.048817
-0.029648
-0.012038
0.003235
0.015786
0.025520
0.032528
0.037045
0.039437
0.040183
0.039822
0.038846
0.037634
0.036459
0.035272
0.033879
0.031999
0.029317
0.025517
0.020324
0.013548
0.005149
-0.004700
-0.015575
-0.026812
-0.037569
-0.046937
-0.054070
-0.058328
-0.059534
-0.057378
-0.052317
-0.045077
-0.036544
-0.027648
-0.019266
-0.012278
0.462880
0.465630
0.473421
0.486255
0.503926
0.525570
0.548720
0.567709
0.571613
0.542593
0.462719
0.321589
0.172532
-0.252910
-0.530593
-0.482496
-0.459858
-0.394085
-0.314267
-0.246737
-0.204380
-0.185044
-0.190065
-0.221202
-0.274861
-0.340746
-0.402722
-0.444446
-0.452538
-0.425509
-0.381651
-0.327807
-0.269735
-0.211965
-0.157792
-0.109356
-0.067827
-0.033659
-0.006877
0.012679
0.025303
0.031662
0.033042
0.031226
0.027967
0.024292
0.021248
0.018292
0.014741
0.009790
0.002495
-0.008152
-0.022927
-0.041840
-0.063662
-0.085919
-0.105478
-0.119388
-0.125613
-0.122129
-0.110626
-0.093258
-0.072483
-0.050597
-0.029447
-0.010315
0.006054
0.019354
0.029580
0.036910
0.041632
0.044127
0.044860
0.044349
0.043088
0.041441
0.039687
0.037818
0.035662
0.032947
0.029354
0.024559
0.018278
0.010318
0.000641
-0.010577
-0.022907
-0.035677
-0.048032
-0.059040
-0.067822
-0.073699
-0.076433
-0.075849
-0.072402
-0.066847
-0.060124
-0.053234
-0.047122
-0.043535
0.454595
0.456477
0.461725
0.470046
0.480751
0.492355
0.501907
0.504032
0.489850
0.446106
0.355352
0.193261
-0.091504
-0.678351
-0.578689
-0.473550
-0.417137
-0.348603
-0.270186
-0.202051
-0.153088
-0.133214
-0.148440
-0.194532
-0.263013
-0.339429
-0.406240
-0.446956
-0.444651
-0.415645
-0.369639
-0.314272
-0.255504
-0.197749
-0.144030
-0.096181
-0.055091
-0.020970
0.006381
0.027294
0.042046
0.050924
0.054545
0.054052
0.050842
0.046125
0.041456
0.036429
0.030443
0.022692
0.012184
-0.002087
-0.020738
-0.043449
-0.068583
-0.093328
-0.114316
-0.128452
-0.133691
-0.128011
-0.114193
-0.094601
-0.071888
-0.048471
-0.026234
-0.006424
0.010293
0.023705
0.033905
0.041152
0.045786
0.048200
0.048840
0.048190
0.046724
0.044819
0.042694
0.040388
0.037732
0.034450
0.030209
0.024675
0.017553
0.008648
-0.002078
-0.014443
-0.028016
-0.042122
-0.055905
-0.068424
-0.078793
-0.086319
-0.090678
-0.091889
-0.090386
-0.086932
-0.082493
-0.078113
-0.074777
-0.075224
0.442835
0.443868
0.446665
0.450771
0.455263
0.458466
0.457521
0.447843
0.422585
0.372201
0.284024
0.141236
-0.077776
-0.357211
-0.409716
-0.387847
-0.350225
-0.296637
-0.238205
-0.182280
-0.137115
-0.122701
-0.142891
-0.192581
-0.260633
-0.332152
-0.390934
-0.416757
-0.409154
-0.379848
-0.335939
-0.284015
-0.229377
-0.175922
-0.126266
-0.081949
-0.043676
-0.011548
0.014713
0.035554
0.051385
0.062452
0.068947
0.071303
0.070200
0.066363
0.061476
0.055368
0.047690
0.037726
0.024503
0.007108
-0.014831
-0.040626
-0.068278
-0.094714
-0.116418
-0.130230
-0.133840
-0.126305
-0.110827
-0.089916
-0.066322
-0.042478
-0.020210
-0.000670
0.015593
0.028474
0.038155
0.044960
0.049268
0.051471
0.051983
0.051240
0.049675
0.047644
0.045354
0.042840
0.039931
0.036340
0.031719
0.025715
0.018022
0.008437
-0.003076
-0.016333
-0.030901
-0.046111
-0.061110
-0.074972
-0.086822
-0.095980
-0.102044
-0.105242
-0.105991
-0.105044
-0.103375
-0.102040
-0.102028
-0.107190
0.429149
0.429435
0.430104
0.430649
0.430110
0.426901
0.418552
0.401462
0.370708
0.320061
0.242349
0.130788
-0.015549
-0.174629
-0.254853
-0.277548
-0.269245
-0.242009
-0.206218
-0.170851
-0.145619
-0.141204
-0.161232
-0.202765
-0.257252
-0.311791
-0.351249
-0.363803
-0.354842
-0.328602
-0.290438
-0.245510
-0.198125
-0.151531
-0.107950
-0.068719
-0.034475
-0.005343
0.018891
0.038622
0.054293
0.066267
0.074790
0.079992
0.081854
0.081758
0.078332
0.072415
0.064091
0.052804
0.037700
0.018063
-0.006167
-0.033944
-0.062973
-0.090010
-0.111516
-0.124513
-0.125568
-0.116901
-0.100634
-0.079481
-0.056196
-0.033113
-0.011910
0.006420
0.021468
0.033235
0.041974
0.048050
0.051855
0.053768
0.054157
0.053398
0.051860
0.049858
0.047596
0.045076
0.042134
0.038469
0.033716
0.027500
0.019498
0.009499
-0.002537
-0.016426
-0.031738
-0.047809
-0.063803
-0.078818
-0.092009
-0.102732
-0.110542
-0.115857
-0.119093
-0.121001
-0.122552
-0.124786
-0.128657
-0.139233
0.414899
0.414577
0.413536
0.411292
0.406973
0.399219
0.386068
0.364869
0.332319
0.284717
0.218649
0.132519
0.030027
-0.074543
-0.147283
-0.185601
-0.197973
-0.192874
-0.178448
-0.162440
-0.152429
-0.154969
-0.172745
-0.203843
-0.242026
-0.277797
-0.300376
-0.306865
-0.298017
-0.276134
-0.244772
-0.207670
-0.168145
-0.128824
-0.091586
-0.057627
-0.027568
-0.001598
0.020400
0.038728
0.053772
0.065902
0.075394
0.082347
0.087308
0.089901
0.088929
0.084640
0.077009
0.065614
0.049811
0.029168
0.003969
-0.024414
-0.053462
-0.079838
-0.100016
-0.111093
-0.110389
-0.100898
-0.084676
-0.064361
-0.042541
-0.021325
-0.002161
0.014157
0.027367
0.037566
0.045053
0.050206
0.053404
0.054995
0.055294
0.054606
0.053229
0.051427
0.049370
0.047026
0.044236
0.040697
0.036024
0.029822
0.021747
0.011573
-0.000745
-0.015028
-0.030849
-0.047556
-0.064331
-0.080304
-0.094673
-0.106842
-0.116380
-0.123849
-0.129699
-0.134705
-0.139841
-0.146118
-0.154414
-0.171117
0.401194
0.400407
0.398073
0.393775
0.386783
0.376016
0.360000
0.336891
0.304594
0.261081
0.205004
0.136760
0.060150
-0.016088
-0.077525
-0.119083
-0.142463
-0.152001
-0.153019
-0.151066
-0.151421
-0.158262
-0.173374
-0.195530
-0.220640
-0.242668
-0.255971
-0.258599
-0.250166
-0.231970
-0.206314
-0.175830
-0.143015
-0.109960
-0.078241
-0.048918
-0.022594
0.000500
0.020404
0.037341
0.051631
0.063612
0.073570
0.081679
0.088352
0.092455
0.093525
0.091235
0.085159
0.074746
0.059472
0.039166
0.014416
-0.013147
-0.040861
-0.065379
-0.083291
-0.091903
-0.089792
-0.080113
-0.064811
-0.046307
-0.026897
-0.008386
0.008043
0.021806
0.032776
0.041128
0.047189
0.051326
0.053885
0.055166
0.055426
0.054894
0.053789
0.052369
0.050652
0.048629
0.046142
0.042885
0.038461
0.032452
0.024494
0.014344
0.001943
-0.012534
-0.028668
-0.045815
-0.063181
-0.079922
-0.095283
-0.108725
-0.119889
-0.129432
-0.137884
-0.146090
-0.155055
-0.165759
-0.178975
-0.202534
0.388886
0.387758
0.384490
0.378751
0.369969
0.357325
0.339759
0.316040
0.284903
0.245329
0.196988
0.140870
0.080003
0.019802
-0.032607
-0.073226
-0.101633
-0.119706
-0.130564
-0.137805
-0.144899
-0.154514
-0.167815
-0.184091
-0.200894
-0.214726
-0.222496
-0.222451
-0.214205
-0.198517
-0.176918
-0.151293
-0.123534
-0.095311
-0.067940
-0.042352
-0.019104
0.001560
0.019641
0.035310
0.048836
0.060522
0.070641
0.079461
0.086723
0.091858
0.094383
0.093758
0.089344
0.080459
0.066588
0.047701
0.024586
-0.000969
-0.026250
-0.048004
-0.063134
-0.068746
-0.066226
-0.057188
-0.043568
-0.027538
-0.011071
0.004332
0.017737
0.028737
0.037324
0.043739
0.048329
0.051448
0.053400
0.054426
0.054714
0.054419
0.053684
0.052730
0.051452
0.049854
0.047776
0.044908
0.040846
0.035155
0.027449
0.017466
0.005132
-0.009388
-0.025682
-0.043115
-0.060904
-0.078232
-0.094379
-0.108860
-0.121448
-0.132849
-0.143735
-0.155073
-0.167948
-0.183327
-0.201865
-0.232993
0.378601
0.377222
0.373295
0.366582
0.356656
0.342913
0.324610
0.300947
0.271195
0.234907
0.192220
0.144197
0.093129
0.042518
-0.003566
-0.042289
-0.072692
-0.095414
-0.112150
-0.125108
-0.136497
-0.148021
-0.160449
-0.173396
-0.185433
-0.194558
-0.198828
-0.196980
-0.188734
-0.174598
-0.155667
-0.133360
-0.109163
-0.084438
-0.060301
-0.037562
-0.016726
0.001977
0.018539
0.033108
0.045927
0.057268
0.067380
0.076446
0.084096
0.089984
0.093605
0.094327
0.091422
0.084166
0.072064
0.055164
0.034349
0.011466
-0.010814
-0.029426
-0.041562
-0.045735
-0.043288
-0.035377
-0.023755
-0.010322
0.003232
0.015649
0.026182
0.034558
0.040868
0.045420
0.048602
0.050768
0.052189
0.053044
0.053441
0.053450
0.053203
0.052671
0.051863
0.050736
0.049112
0.046681
0.043033
0.037721
0.030340
0.020608
0.008434
-0.006030
-0.022376
-0.039975
-0.058049
-0.075789
-0.092498
-0.107732
-0.121421
-0.134337
-0.147329
-0.161544
-0.178197
-0.198285
-0.222361
-0.261623
0.370801
0.369207
0.364799
0.357440
0.346811
0.332465
0.313878
0.290531
0.262019
0.228206
0.189423
0.146658
0.101672
0.056892
0.014971
-0.022022
-0.053068
-0.078212
-0.098315
-0.114698
-0.128755
-0.141590
-0.153715
-0.164917
-0.174330
-0.180744
-0.182856
-0.179838
-0.171518
-0.158299
-0.141043
-0.120893
-0.099081
-0.076761
-0.054903
-0.034226
-0.015183
0.002019
0.017379
0.031045
0.043252
0.054266
0.064324
0.073476
0.081460
0.087977
0.092511
0.094383
0.092813
0.087065
0.076676
0.061753
0.043229
0.022943
0.003431
-0.012554
-0.022711
-0.026400
-0.024313
-0.017547
-0.007686
0.003578
0.014757
0.024754
0.032942
0.039137
0.043504
0.046423
0.048343
0.049658
0.050634
0.051406
0.051997
0.052366
0.052505
0.052406
0.052060
0.051388
0.050200
0.048188
0.044940
0.040002
0.032956
0.023498
0.011520
-0.002838
-0.019175
-0.036856
-0.055096
-0.073080
-0.090111
-0.105727
-0.120173
-0.134200
-0.148846
-0.165468
-0.185462
-0.209928
-0.239405
-0.286927
0.365882
0.363975
0.359162
0.351373
0.340335
0.325686
0.307032
0.284018
0.256418
0.224252
0.187924
0.148331
0.106906
0.065502
0.026090
-0.009692
-0.040868
-0.067210
-0.089129
-0.107432
-0.123039
-0.136696
-0.148764
-0.159104
-0.167132
-0.172033
-0.172902
-0.169195
-0.160816
-0.148127
-0.131872
-0.113037
-0.092701
-0.071893
-0.051488
-0.032142
-0.014275
0.001923
0.016455
0.029466
0.041193
0.051908
0.061888
0.071101
0.079389
0.086452
0.091754
0.094570
0.094076
0.089513
0.080431
0.066979
0.050126
0.031689
0.014067
-0.000265
-0.009465
-0.013021
-0.011305
-0.005390
0.003251
0.013061
0.022672
0.031081
0.037721
0.042450
0.045468
0.047197
0.048137
0.048738
0.049314
0.050027
0.050781
0.051416
0.051910
0.052210
0.052263
0.051971
0.051142
0.049469
0.046549
0.041923
0.035160
0.025941
0.014138
-0.000119
-0.016429
-0.034145
-0.052463
-0.070541
-0.087642
-0.103433
-0.118365
-0.133132
-0.148917
-0.167239
-0.189687
-0.217569
-0.251623
-0.306667
0.364438
0.361614
0.356406
0.348364
0.337135
0.322373
0.303737
0.280947
0.253853
0.222536
0.187417
0.149335
0.109564
0.069708
0.031458
-0.003734
-0.034924
-0.061776
-0.084502
-0.103678
-0.120005
-0.134067
-0.146150
-0.156153
-0.163632
-0.167928
-0.168281
-0.164295
-0.155924
-0.143516
-0.127755
-0.109555
-0.089918
-0.069811
-0.050060
-0.031296
-0.013924
0.001868
0.016079
0.028844
0.040385
0.050942
0.060680
0.069857
0.078391
0.085891
0.091765
0.095231
0.095414
0.091515
0.083071
0.070248
0.054060
0.036358
0.019495
0.005722
-0.003356
-0.006922
-0.005450
0.000009
0.008052
0.017199
0.026143
0.033919
0.039980
0.044183
0.046724
0.048016
0.048562
0.048824
0.049119
0.049556
0.050190
0.050996
0.051748
0.052326
0.052649
0.052612
0.052021
0.050575
0.047870
0.043446
0.036858
0.027769
0.016039
0.001789
-0.014570
-0.032370
-0.050769
-0.068918
-0.086183
-0.102281
-0.117530
-0.132732
-0.149111
-0.168229
-0.191762
-0.221212
-0.257757
-0.318160
