# vtk DataFile Version 3.0
Scalar Field
ASCII
DATASET RECTILINEAR_GRID
DIMENSIONS 100 26 1
X_COORDINATES 100 double
0.050000 0.150000 0.250000 0.350000 0.450000 0.550000 0.650000 0.750000 0.850000 0.950000 1.050000 1.150000 1.250000 1.350000 1.450000 1.550000 1.650000 1.750000 1.850000 1.950000 2.050000 2.150000 2.250000 2.350000 2.450000 2.550000 2.650000 2.750000 2.850000 2.950000 3.050000 3.150000 3.250000 3.350000 3.450000 3.550000 3.650000 3.750000 3.850000 3.950000 4.050000 4.150000 4.250000 4.350000 4.450000 4.550000 4.650000 4.750000 4.850000 4.950000 5.050000 5.150000 5.250000 5.350000 5.450000 5.550000 5.650000 5.750000 5.850000 5.950000 6.050000 6.150000 6.250000 6.350000 6.450000 6.550000 6.650000 6.750000 6.850000 6.950000 7.050000 7.150000 7.250000 7.350000 7.450000 7.550000 7.650000 7.750000 7.850000 7.950000 8.050000 8.150000 8.250000 8.350000 8.450000 8.550000 8.650000 8.750000 8.850000 8.950000 9.050000 9.150000 9.250000 9.350000 9.450000 9.550000 9.650000 9.750000 9.850000 9.950000 
Y_COORDINATES 26 double
0.050000 0.150000 0.250000 0.350000 0.450000 0.550000 0.650000 0.750000 0.850000 0.950000 1.050000 1.150000 1.250000 1.350000 1.450000 1.550000 1.650000 1.750000 1.850000 1.950000 2.050000 2.150000 2.250000 2.350000 2.450000 2.550000 
Z_COORDINATES 1 double
0.0
POINT_DATA 2600
SCALARS Skalarfeld double 1
LOOKUP_TABLE default
0.289343
0.274105
0.258977
0.240920
0.218786
0.192058
0.160617
0.124733
0.085134
0.043046
0.000114
-0.041846
-0.081137
-0.116405
-0.146750
-0.171179
-0.189164
-0.200723
-0.206128
-0.205896
-0.200751
-0.191558
-0.179235
-0.164671
-0.148646
-0.131777
-0.114507
-0.097120
-0.079793
-0.062667
-0.045921
-0.029837
-0.014821
-0.000461
0.012058
0.021945
0.028755
0.032647
0.034345
0.033992
0.031725
0.027568
0.021444
0.013286
0.003188
-0.008421
-0.020560
-0.031483
-0.038866
-0.040991
-0.037911
-0.030880
-0.022541
-0.013668
-0.004929
0.003187
0.010374
0.016481
0.021478
0.025432
0.028490
0.030788
0.032597
0.033864
0.034428
0.034217
0.033179
0.031370
0.029021
0.026493
0.024076
0.021771
0.019251
0.016083
0.012037
0.007282
0.002335
-0.002174
-0.005770
-0.008265
-0.009727
-0.010362
-0.010406
-0.010093
-0.009642
-0.009239
-0.009024
-0.009088
-0.009474
-0.010206
-0.011311
-0.012832
-0.014827
-0.017331
-0.020316
-0.023687
-0.027301
-0.030984
-0.034552
-0.037898
0.280466
0.274040
0.261916
0.245059
0.223291
0.196351
0.164149
0.126959
0.085587
0.041459
-0.003462
-0.047086
-0.087583
-0.123552
-0.153931
-0.178328
-0.196390
-0.207868
-0.213015
-0.212343
-0.206584
-0.196628
-0.183436
-0.167939
-0.150964
-0.133169
-0.115030
-0.096860
-0.078850
-0.061149
-0.043931
-0.027460
-0.011653
0.002375
0.014176
0.023312
0.029765
0.033475
0.034594
0.033672
0.030934
0.026426
0.020059
0.011727
0.001465
-0.010358
-0.022754
-0.033791
-0.040795
-0.041701
-0.037248
-0.030811
-0.022950
-0.014111
-0.005372
0.002742
0.009916
0.016010
0.021004
0.024977
0.028099
0.030650
0.032656
0.033975
0.034554
0.034420
0.033464
0.031706
0.029398
0.026949
0.024685
0.022562
0.020153
0.016918
0.012585
0.007388
0.001991
-0.002830
-0.006531
-0.008965
-0.010290
-0.010778
-0.010685
-0.010239
-0.009666
-0.009131
-0.008794
-0.008753
-0.009054
-0.009723
-0.010792
-0.012300
-0.014315
-0.016872
-0.019936
-0.023401
-0.027110
-0.030886
-0.034561
-0.038445
0.283494
0.279434
0.269220
0.253417
0.231935
0.204452
0.170736
0.130955
0.085997
0.037664
-0.011323
-0.058246
-0.101056
-0.138470
-0.169754
-0.194558
-0.212826
-0.224156
-0.228763
-0.227116
-0.219939
-0.208158
-0.192808
-0.174921
-0.155433
-0.135125
-0.114593
-0.094265
-0.074436
-0.055327
-0.037142
-0.020092
-0.004708
0.008325
0.018587
0.025800
0.030019
0.031665
0.030629
0.027886
0.023939
0.018886
0.012614
0.004958
-0.004097
-0.014192
-0.024344
-0.032860
-0.037842
-0.038310
-0.034835
-0.028562
-0.020616
-0.012522
-0.004489
0.003082
0.009810
0.015530
0.020209
0.023905
0.026765
0.028984
0.030702
0.032031
0.032949
0.033269
0.032934
0.031918
0.030341
0.028416
0.026344
0.024006
0.021096
0.017282
0.012448
0.006927
0.001404
-0.003383
-0.006980
-0.009340
-0.010676
-0.011229
-0.011176
-0.010690
-0.010005
-0.009217
-0.008578
-0.008234
-0.008275
-0.008803
-0.009884
-0.011489
-0.013654
-0.016358
-0.019519
-0.023003
-0.026646
-0.030273
-0.033713
-0.036323
0.294080
0.290799
0.281649
0.266604
0.245230
0.216837
0.180768
0.136850
0.085978
0.030535
-0.025065
-0.076924
-0.122817
-0.161898
-0.194013
-0.219181
-0.237424
-0.248411
-0.252135
-0.248973
-0.239626
-0.225084
-0.206502
-0.185068
-0.161888
-0.137919
-0.113935
-0.090527
-0.068135
-0.047080
-0.027616
-0.010003
0.005124
0.017113
0.025463
0.029940
0.030759
0.028601
0.024433
0.018723
0.012861
0.007007
0.001021
-0.005329
-0.012157
-0.019241
-0.025884
-0.030985
-0.033449
-0.032757
-0.029174
-0.023435
-0.016409
-0.008831
-0.001418
0.005318
0.011260
0.016260
0.020263
0.023301
0.025501
0.027071
0.028237
0.029193
0.030034
0.030716
0.031118
0.031072
0.030421
0.029119
0.027139
0.024460
0.021044
0.016866
0.011926
0.006584
0.001382
-0.003146
-0.006685
-0.009185
-0.010741
-0.011464
-0.011461
-0.010895
-0.009963
-0.009022
-0.008203
-0.007645
-0.007494
-0.007931
-0.009026
-0.010789
-0.013154
-0.016009
-0.019208
-0.022584
-0.025967
-0.029191
-0.032074
-0.034243
0.310757
0.307885
0.299553
0.285280
0.264111
0.234676
0.195459
0.145443
0.085235
0.017886
-0.047971
-0.106387
-0.155511
-0.195773
-0.228187
-0.253380
-0.271321
-0.281681
-0.284113
-0.278757
-0.266292
-0.247849
-0.224810
-0.198607
-0.170581
-0.141906
-0.113557
-0.086303
-0.060725
-0.037230
-0.016085
0.002521
0.017820
0.028907
0.035037
0.035941
0.032086
0.024688
0.015507
0.006334
-0.001828
-0.008442
-0.013802
-0.018335
-0.022371
-0.025955
-0.028777
-0.030278
-0.029912
-0.027445
-0.023062
-0.017245
-0.010598
-0.003710
0.002901
0.008904
0.014037
0.018209
0.021362
0.023505
0.024772
0.025439
0.025828
0.026212
0.026777
0.027545
0.028351
0.028907
0.028896
0.028083
0.026343
0.023668
0.020024
0.015549
0.010476
0.005314
0.000473
-0.003676
-0.006914
-0.009194
-0.010573
-0.011151
-0.011053
-0.010430
-0.009452
-0.008324
-0.007236
-0.006451
-0.006234
-0.006697
-0.007906
-0.009897
-0.012526
-0.015596
-0.018891
-0.022213
-0.025390
-0.028287
-0.030808
-0.033379
0.332755
0.330301
0.322999
0.309988
0.289680
0.259665
0.216862
0.158326
0.083386
-0.004872
-0.086068
-0.151588
-0.202258
-0.241728
-0.273175
-0.298034
-0.315743
-0.325502
-0.326446
-0.318194
-0.301451
-0.277674
-0.248653
-0.216196
-0.181958
-0.147372
-0.113629
-0.081681
-0.052250
-0.025827
-0.002668
0.017237
0.033187
0.043675
0.047480
0.044236
0.034715
0.020726
0.004886
-0.009777
-0.020589
-0.027680
-0.031884
-0.034019
-0.034814
-0.034677
-0.033673
-0.031638
-0.028372
-0.023822
-0.018157
-0.011728
-0.004975
0.001662
0.007805
0.013174
0.017560
0.020825
0.022914
0.023892
0.023945
0.023438
0.022829
0.022401
0.022417
0.022992
0.023974
0.024999
0.025625
0.025449
0.024187
0.021706
0.018021
0.013304
0.008121
0.002885
-0.001805
-0.005651
-0.008491
-0.010309
-0.011193
-0.011284
-0.010743
-0.009740
-0.008446
-0.007048
-0.005756
-0.004821
-0.004503
-0.005002
-0.006417
-0.008717
-0.011719
-0.015158
-0.018753
-0.022255
-0.025463
-0.028247
-0.030564
-0.032921
0.359294
0.357438
0.351750
0.341066
0.323136
0.294172
0.248462
0.178851
0.080041
-0.047805
-0.149613
-0.218061
-0.264148
-0.298133
-0.326382
-0.351140
-0.370197
-0.380546
-0.380516
-0.368846
-0.346540
-0.315769
-0.279017
-0.238632
-0.196660
-0.154827
-0.114555
-0.076997
-0.043042
-0.013320
0.011823
0.032431
0.049195
0.059656
0.061576
0.054609
0.039961
0.019890
-0.002594
-0.023951
-0.040669
-0.048743
-0.051785
-0.051370
-0.048845
-0.045073
-0.040468
-0.035149
-0.029126
-0.022451
-0.015291
-0.007924
-0.000688
0.006081
0.012090
0.017116
0.020975
0.023503
0.024570
0.024159
0.022498
0.020060
0.017543
0.015915
0.015168
0.015468
0.016663
0.018283
0.019747
0.020512
0.020145
0.018382
0.015154
0.010629
0.005247
-0.000245
-0.005017
-0.008797
-0.011385
-0.012774
-0.013091
-0.012538
-0.011340
-0.009722
-0.007894
-0.006067
-0.004464
-0.003339
-0.002957
-0.003537
-0.005187
-0.007856
-0.011333
-0.015300
-0.019398
-0.023290
-0.026705
-0.029472
-0.031537
-0.033184
0.389257
0.388274
0.385061
0.378339
0.365421
0.341141
0.296060
0.214502
0.074979
-0.133900
-0.253239
-0.306567
-0.334482
-0.355144
-0.377056
-0.403152
-0.428832
-0.443898
-0.444955
-0.429944
-0.401068
-0.361908
-0.315999
-0.266360
-0.215464
-0.165337
-0.117656
-0.073810
-0.034918
-0.001838
0.024792
0.044607
0.059055
0.070076
0.070771
0.061343
0.043929
0.021200
-0.004153
-0.029140
-0.050485
-0.065120
-0.068451
-0.066699
-0.061907
-0.055446
-0.048073
-0.040148
-0.031847
-0.023310
-0.014725
-0.006344
0.001547
0.008663
0.014756
0.019612
0.023011
0.024696
0.024437
0.022201
0.018350
0.013664
0.009143
0.005632
0.004053
0.004367
0.006123
0.008662
0.011269
0.013287
0.014181
0.013581
0.011326
0.007505
0.002497
-0.003051
-0.008366
-0.012301
-0.014906
-0.016111
-0.016047
-0.014958
-0.013138
-0.010885
-0.008478
-0.006176
-0.004233
-0.002915
-0.002487
-0.003170
-0.005075
-0.008146
-0.012152
-0.016715
-0.021382
-0.025704
-0.029312
-0.031976
-0.033627
-0.034361
0.421017
0.421194
0.421383
0.420549
0.416258
0.402988
0.368115
0.282643
0.073894
-0.319268
-0.408307
-0.400424
-0.393659
-0.394399
-0.406720
-0.434587
-0.473888
-0.504312
-0.510716
-0.493801
-0.458836
-0.411597
-0.356871
-0.298326
-0.238806
-0.180633
-0.125796
-0.076035
-0.032834
0.002628
0.029458
0.047041
0.055875
0.059690
0.058062
0.048961
0.034217
0.015281
-0.006368
-0.028831
-0.049619
-0.066018
-0.075712
-0.074983
-0.070115
-0.062891
-0.054362
-0.045111
-0.035486
-0.025745
-0.016148
-0.006982
0.001454
0.008872
0.015004
0.019579
0.022269
0.022692
0.020553
0.015925
0.009469
0.002395
-0.003922
-0.008451
-0.010264
-0.009414
-0.006659
-0.002855
0.001160
0.004650
0.007018
0.007833
0.006863
0.004115
-0.000129
-0.005309
-0.010671
-0.015303
-0.018149
-0.019473
-0.019353
-0.018026
-0.015831
-0.013136
-0.010293
-0.007624
-0.005425
-0.003981
-0.003561
-0.004385
-0.006565
-0.010042
-0.014556
-0.019666
-0.024817
-0.029449
-0.033100
-0.035483
-0.036524
-0.036178
0.452421
0.453932
0.458135
0.464677
0.472442
0.478058
0.471277
0.418819
0.173700
-0.663187
-0.586043
-0.453348
-0.419419
-0.406386
-0.410443
-0.438076
-0.484177
-0.535675
-0.556740
-0.541770
-0.504626
-0.453390
-0.393840
-0.330074
-0.265218
-0.201938
-0.142707
-0.089938
-0.045970
-0.012695
0.009319
0.021243
0.025334
0.023918
0.020208
0.015094
0.007637
-0.002420
-0.015015
-0.029552
-0.044665
-0.058331
-0.068392
-0.073463
-0.070671
-0.064804
-0.057029
-0.048071
-0.038423
-0.028482
-0.018624
-0.009225
-0.000661
0.006711
0.012543
0.016449
0.017968
0.016620
0.012153
0.004894
-0.004060
-0.013056
-0.020458
-0.025197
-0.026384
-0.024422
-0.020257
-0.014899
-0.009286
-0.004213
-0.000302
0.001995
0.002415
0.000904
-0.002342
-0.006857
-0.011946
-0.016793
-0.020372
-0.022037
-0.022187
-0.020979
-0.018755
-0.015928
-0.012913
-0.010091
-0.007804
-0.006361
-0.006043
-0.007069
-0.009548
-0.013410
-0.018363
-0.023903
-0.029388
-0.034162
-0.037676
-0.039594
-0.039835
-0.038170
0.481001
0.483780
0.491854
0.505754
0.526337
0.554600
0.590800
0.630362
0.706931
0.021872
-0.509523
-0.433002
-0.423200
-0.415613
-0.418941
-0.441474
-0.481562
-0.528042
-0.562333
-0.556458
-0.522095
-0.473148
-0.415423
-0.353014
-0.289135
-0.226865
-0.169399
-0.120065
-0.081781
-0.055956
-0.041680
-0.035854
-0.034745
-0.035629
-0.034089
-0.031184
-0.028588
-0.027501
-0.028787
-0.032858
-0.039420
-0.047369
-0.055017
-0.060661
-0.063054
-0.060006
-0.054533
-0.047340
-0.038985
-0.029967
-0.020777
-0.011916
-0.003870
0.002891
0.007896
0.010625
0.010494
0.006992
0.000021
-0.009729
-0.020714
-0.030957
-0.038722
-0.042980
-0.042885
-0.039328
-0.033403
-0.026256
-0.018915
-0.012219
-0.006795
-0.003078
-0.001327
-0.001618
-0.003812
-0.007527
-0.012144
-0.016881
-0.020926
-0.023236
-0.023915
-0.023127
-0.021198
-0.018558
-0.015661
-0.012933
-0.010757
-0.009471
-0.009364
-0.010662
-0.013466
-0.017689
-0.023008
-0.028866
-0.034552
-0.039327
-0.042570
-0.043882
-0.043160
-0.039879
0.504413
0.508110
0.518978
0.538132
0.567712
0.611439
0.675776
0.771736
0.906625
0.934601
0.000000
-0.429827
-0.426652
-0.425664
-0.431493
-0.449634
-0.476906
-0.507307
-0.529523
-0.531775
-0.503165
-0.460641
-0.410203
-0.355612
-0.299698
-0.245787
-0.197659
-0.159204
-0.133025
-0.118693
-0.112820
-0.110599
-0.107953
-0.101678
-0.090977
-0.077972
-0.064607
-0.052478
-0.042853
-0.036646
-0.034266
-0.035413
-0.039026
-0.043537
-0.047332
-0.048827
-0.046452
-0.041984
-0.035929
-0.028800
-0.021166
-0.013632
-0.006804
-0.001274
0.002350
0.003413
0.001238
-0.004646
-0.014101
-0.026048
-0.038579
-0.049535
-0.057190
-0.060327
-0.058531
-0.053035
-0.045100
-0.036009
-0.026881
-0.018587
-0.011745
-0.006752
-0.003830
-0.003040
-0.004271
-0.007201
-0.011283
-0.015797
-0.019961
-0.023020
-0.024252
-0.024046
-0.022634
-0.020423
-0.017879
-0.015458
-0.013571
-0.012580
-0.012789
-0.014423
-0.017576
-0.022147
-0.027782
-0.033885
-0.039692
-0.044398
-0.047304
-0.047938
-0.046145
-0.040948
0.520959
0.525037
0.537020
0.558047
0.590168
0.636469
0.700613
0.783853
0.878554
0.962577
0.877047
0.000000
-0.431294
-0.435935
-0.439667
-0.451615
-0.466198
-0.478452
-0.481898
-0.470879
-0.446734
-0.410579
-0.369610
-0.327106
-0.284775
-0.246243
-0.215665
-0.196332
-0.188400
-0.188064
-0.189571
-0.188037
-0.178951
-0.161622
-0.140158
-0.116593
-0.093009
-0.071158
-0.052400
-0.037729
-0.027770
-0.022665
-0.021898
-0.024266
-0.028106
-0.031718
-0.033302
-0.031874
-0.028663
-0.024047
-0.018607
-0.013019
-0.007982
-0.004204
-0.002423
-0.003424
-0.007938
-0.016340
-0.028209
-0.042110
-0.055863
-0.067208
-0.074489
-0.075916
-0.072199
-0.064587
-0.054549
-0.043506
-0.032651
-0.022877
-0.014779
-0.008707
-0.004826
-0.003162
-0.003599
-0.005851
-0.009433
-0.013685
-0.017860
-0.021265
-0.023155
-0.023598
-0.022802
-0.021148
-0.019098
-0.017118
-0.015638
-0.015037
-0.015630
-0.017644
-0.021165
-0.026076
-0.032004
-0.038325
-0.044233
-0.048867
-0.051448
-0.051419
-0.048537
-0.041193
0.529926
0.533842
0.545273
0.565003
0.594242
0.634439
0.686722
0.750269
0.813138
0.832142
0.791517
0.671965
0.000000
-0.441319
-0.446703
-0.453171
-0.457913
-0.450536
-0.428580
-0.397191
-0.363243
-0.330139
-0.296767
-0.265984
-0.241245
-0.224271
-0.219088
-0.225716
-0.239638
-0.253511
-0.260164
-0.255412
-0.235194
-0.207736
-0.176121
-0.143005
-0.110693
-0.081004
-0.055256
-0.034331
-0.018767
-0.008777
-0.004148
-0.004074
-0.007132
-0.011534
-0.015576
-0.017431
-0.017199
-0.015314
-0.012358
-0.009039
-0.006126
-0.004429
-0.004809
-0.008162
-0.015232
-0.026241
-0.040476
-0.056186
-0.070972
-0.082466
-0.088957
-0.088581
-0.082812
-0.073110
-0.061105
-0.048315
-0.035975
-0.024975
-0.015876
-0.008972
-0.004370
-0.002049
-0.001879
-0.003592
-0.006752
-0.010752
-0.014893
-0.018521
-0.020887
-0.021896
-0.021689
-0.020605
-0.019084
-0.017589
-0.016559
-0.016383
-0.017384
-0.019790
-0.023680
-0.028926
-0.035140
-0.041681
-0.047717
-0.052334
-0.054683
-0.054105
-0.050245
-0.040690
0.531607
0.534955
0.544661
0.561122
0.584865
0.616102
0.653667
0.692584
0.719764
0.708563
0.641985
0.552413
0.379219
0.000000
-0.454848
-0.462993
-0.466025
-0.435820
-0.383082
-0.324795
-0.272565
-0.232550
-0.205890
-0.187676
-0.179813
-0.188063
-0.212021
-0.246215
-0.281290
-0.307242
-0.316641
-0.301905
-0.272871
-0.236657
-0.196881
-0.156505
-0.117890
-0.082780
-0.052342
-0.027272
-0.007926
0.005576
0.013349
0.015883
0.014220
0.009935
0.004800
0.000279
-0.002047
-0.002697
-0.002150
-0.001114
-0.000405
-0.000921
-0.003635
-0.009518
-0.019272
-0.032918
-0.049445
-0.066830
-0.082498
-0.093983
-0.099416
-0.097023
-0.089347
-0.077886
-0.064342
-0.050271
-0.036901
-0.025089
-0.015345
-0.007905
-0.002825
-0.000046
0.000577
-0.000708
-0.003504
-0.007254
-0.011295
-0.014972
-0.017732
-0.019167
-0.019445
-0.018856
-0.017814
-0.016771
-0.016166
-0.016395
-0.017785
-0.020562
-0.024802
-0.030368
-0.036866
-0.043650
-0.049870
-0.054580
-0.056866
-0.055977
-0.051432
-0.039782
0.527057
0.529630
0.536999
0.549166
0.565913
0.586326
0.607853
0.624700
0.625680
0.592809
0.508087
0.361116
0.206024
-0.235133
-0.548968
-0.502079
-0.481586
-0.424577
-0.345201
-0.264716
-0.196773
-0.146589
-0.119611
-0.108678
-0.119349
-0.151945
-0.201514
-0.257917
-0.308516
-0.341847
-0.346223
-0.323579
-0.288664
-0.246902
-0.202359
-0.158108
-0.116402
-0.078778
-0.046172
-0.019059
0.002406
0.018241
0.028553
0.033603
0.034008
0.030912
0.025873
0.020414
0.015976
0.013271
0.011765
0.010743
0.009360
0.006650
0.001556
-0.006907
-0.019329
-0.035488
-0.054093
-0.072895
-0.089203
-0.100628
-0.103714
-0.100056
-0.091098
-0.078567
-0.064217
-0.049580
-0.035829
-0.023753
-0.013797
-0.006146
-0.000818
0.002266
0.003247
0.002349
-0.000079
-0.003535
-0.007399
-0.011039
-0.013944
-0.015676
-0.016302
-0.016087
-0.015422
-0.014748
-0.014501
-0.015077
-0.016804
-0.019908
-0.024460
-0.030322
-0.037103
-0.044161
-0.050651
-0.055612
-0.058089
-0.057260
-0.052540
-0.039340
0.517698
0.519384
0.524137
0.531665
0.541267
0.551425
0.559123
0.558872
0.541594
0.493766
0.397505
0.227735
-0.068592
-0.676291
-0.595857
-0.494439
-0.443590
-0.381006
-0.301598
-0.220762
-0.150777
-0.096710
-0.063439
-0.057023
-0.080263
-0.129075
-0.193800
-0.261282
-0.317286
-0.349058
-0.343943
-0.319183
-0.282448
-0.239454
-0.194362
-0.150133
-0.108790
-0.071614
-0.039317
-0.012186
0.009779
0.026736
0.038864
0.046324
0.049381
0.048653
0.045216
0.040355
0.035204
0.031362
0.028408
0.025719
0.022487
0.017722
0.010352
-0.000545
-0.015380
-0.033674
-0.053891
-0.073612
-0.090012
-0.100464
-0.102060
-0.097522
-0.088087
-0.075430
-0.061228
-0.046906
-0.033531
-0.021795
-0.012079
-0.004526
0.000861
0.004157
0.005478
0.005004
0.003026
-0.000016
-0.003560
-0.007011
-0.009873
-0.011722
-0.012537
-0.012557
-0.012152
-0.011750
-0.011777
-0.012628
-0.014630
-0.018004
-0.022822
-0.028950
-0.036012
-0.043390
-0.050259
-0.055676
-0.058680
-0.058407
-0.054147
-0.040817
0.505166
0.505987
0.508222
0.511422
0.514666
0.516261
0.513299
0.501101
0.472656
0.418149
0.324446
0.173923
-0.056366
-0.351441
-0.416460
-0.401005
-0.366002
-0.315811
-0.255884
-0.192082
-0.133821
-0.086149
-0.048828
-0.045015
-0.073730
-0.126681
-0.192148
-0.256782
-0.306925
-0.323837
-0.316639
-0.292670
-0.258210
-0.218311
-0.176713
-0.136036
-0.098015
-0.063711
-0.033686
-0.008142
0.012971
0.029863
0.042798
0.051999
0.057619
0.059902
0.059385
0.056836
0.053014
0.049398
0.045826
0.042015
0.037323
0.030825
0.021518
0.008624
-0.008043
-0.027774
-0.048867
-0.068845
-0.084928
-0.093184
-0.094424
-0.089978
-0.081135
-0.069456
-0.056442
-0.043343
-0.031076
-0.020232
-0.011132
-0.003905
0.001432
0.004917
0.006623
0.006672
0.005288
0.002838
-0.000185
-0.003237
-0.005853
-0.007617
-0.008459
-0.008584
-0.008335
-0.008118
-0.008349
-0.009413
-0.011631
-0.015221
-0.020257
-0.026620
-0.033965
-0.041714
-0.049093
-0.055210
-0.059154
-0.060103
-0.057083
-0.045673
0.491064
0.491118
0.491153
0.490680
0.488761
0.483805
0.473318
0.453627
0.419685
0.365063
0.282277
0.164100
0.009139
-0.160289
-0.249568
-0.278285
-0.273301
-0.247615
-0.209209
-0.166099
-0.123449
-0.086808
-0.064513
-0.065704
-0.090994
-0.134957
-0.188024
-0.238035
-0.270214
-0.280066
-0.272868
-0.252532
-0.223549
-0.189857
-0.154505
-0.119680
-0.086841
-0.056889
-0.030311
-0.007300
0.012153
0.028199
0.041071
0.051025
0.058284
0.063052
0.065559
0.065979
0.066081
0.064124
0.060998
0.056910
0.051457
0.043868
0.033310
0.019223
0.001651
-0.018516
-0.039513
-0.058906
-0.073361
-0.080612
-0.082280
-0.078978
-0.071852
-0.062226
-0.051345
-0.040228
-0.029627
-0.020040
-0.011760
-0.004943
0.000346
0.004077
0.006259
0.006948
0.006306
0.004629
0.002339
-0.000089
-0.002229
-0.003697
-0.004416
-0.004541
-0.004371
-0.004287
-0.004680
-0.005919
-0.008311
-0.012069
-0.017278
-0.023845
-0.031472
-0.039647
-0.047673
-0.054745
-0.060058
-0.062772
-0.062456
-0.055320
0.476812
0.476228
0.474457
0.471060
0.465208
0.455568
0.440167
0.416318
0.380634
0.329296
0.258733
0.167189
0.058312
-0.053199
-0.132140
-0.174858
-0.189461
-0.184162
-0.165903
-0.141036
-0.114955
-0.093119
-0.081498
-0.085050
-0.104460
-0.136065
-0.172704
-0.204966
-0.224754
-0.231330
-0.225570
-0.209910
-0.187355
-0.160753
-0.132444
-0.104175
-0.077140
-0.052085
-0.029421
-0.009328
0.008166
0.023129
0.035702
0.046068
0.054418
0.060899
0.065813
0.070080
0.072397
0.072653
0.071114
0.067864
0.062650
0.054934
0.044141
0.029969
0.012676
-0.006754
-0.026592
-0.044347
-0.056924
-0.064748
-0.067844
-0.066740
-0.062322
-0.055596
-0.047498
-0.038803
-0.030108
-0.021854
-0.014355
-0.007840
-0.002470
0.001627
0.004396
0.005823
0.006021
0.005229
0.003805
0.002159
0.000725
-0.000300
-0.000790
-0.000846
-0.000722
-0.000756
-0.001306
-0.002709
-0.005251
-0.009137
-0.014466
-0.021194
-0.029093
-0.037738
-0.046534
-0.054793
-0.061811
-0.067155
-0.070590
-0.070290
0.463597
0.462491
0.459277
0.453629
0.444905
0.432075
0.413684
0.387874
0.352509
0.305506
0.245468
0.172781
0.091353
0.010296
-0.055279
-0.099626
-0.123972
-0.132187
-0.128844
-0.118625
-0.105994
-0.095304
-0.090640
-0.094938
-0.108649
-0.129427
-0.152611
-0.172470
-0.185066
-0.188975
-0.184330
-0.172497
-0.155406
-0.135043
-0.113138
-0.091024
-0.069615
-0.049455
-0.030801
-0.013734
0.001751
0.015672
0.028047
0.038904
0.048311
0.056417
0.063665
0.069487
0.073600
0.075838
0.076149
0.074394
0.070279
0.063415
0.053476
0.040399
0.024584
0.007006
-0.010745
-0.026267
-0.039001
-0.048238
-0.053726
-0.055663
-0.054593
-0.051185
-0.046068
-0.039790
-0.032841
-0.025663
-0.018648
-0.012153
-0.006465
-0.001870
0.001589
0.003790
0.004849
0.004993
0.004501
0.003718
0.002912
0.002337
0.002096
0.002111
0.002168
0.001978
0.001235
-0.000351
-0.003028
-0.006991
-0.012366
-0.019188
-0.027322
-0.036459
-0.046122
-0.055810
-0.064941
-0.073284
-0.080907
-0.089444
0.452388
0.450829
0.446422
0.439027
0.428223
0.413276
0.393169
0.366674
0.332518
0.289670
0.237813
0.177996
0.113403
0.049752
-0.005397
-0.047598
-0.076031
-0.092180
-0.098714
-0.098816
-0.095788
-0.092822
-0.092712
-0.097320
-0.106982
-0.120325
-0.134599
-0.146846
-0.154343
-0.155978
-0.151719
-0.142380
-0.129250
-0.113740
-0.097128
-0.080398
-0.064179
-0.048752
-0.034121
-0.020136
-0.006636
0.006413
0.018875
0.030513
0.041151
0.050975
0.059589
0.066860
0.072572
0.076523
0.078530
0.078367
0.075747
0.070395
0.062156
0.051113
0.037680
0.022695
0.007102
-0.008109
-0.022022
-0.033683
-0.042332
-0.047708
-0.050061
-0.049815
-0.047340
-0.043001
-0.037259
-0.030622
-0.023622
-0.016818
-0.010485
-0.005190
-0.001036
0.001978
0.003854
0.004751
0.004952
0.004767
0.004460
0.004227
0.004132
0.004108
0.003982
0.003526
0.002504
0.000698
-0.002092
-0.006050
-0.011342
-0.018147
-0.026446
-0.036239
-0.047058
-0.058195
-0.069297
-0.080320
-0.091693
-0.109257
0.444035
0.441974
0.436433
0.427573
0.415202
0.398833
0.377766
0.351217
0.318464
0.279079
0.233239
0.182099
0.128101
0.074985
0.027120
-0.012348
-0.042163
-0.062687
-0.075364
-0.082253
-0.085662
-0.087856
-0.090775
-0.095681
-0.102873
-0.111618
-0.120554
-0.127659
-0.131416
-0.131085
-0.126661
-0.118738
-0.108283
-0.096383
-0.084015
-0.071897
-0.060394
-0.049503
-0.038905
-0.028086
-0.016554
-0.004126
0.008869
0.021740
0.033973
0.045235
0.055340
0.064123
0.071390
0.076927
0.080508
0.081895
0.080871
0.077305
0.071182
0.062628
0.051875
0.038699
0.023980
0.008087
-0.008099
-0.023077
-0.035253
-0.043806
-0.048913
-0.051047
-0.050403
-0.047134
-0.041850
-0.035158
-0.027548
-0.020301
-0.013655
-0.007699
-0.002871
0.000756
0.003231
0.004724
0.005478
0.005744
0.005749
0.005645
0.005467
0.005168
0.004631
0.003712
0.002280
0.000215
-0.002627
-0.006439
-0.011400
-0.018116
-0.026841
-0.037287
-0.049028
-0.061475
-0.074130
-0.086929
-0.100522
-0.124108
0.439480
0.436542
0.429613
0.419331
0.405677
0.388292
0.366664
0.340283
0.308760
0.271992
0.230368
0.184964
0.137671
0.091092
0.048084
0.010933
-0.019134
-0.041977
-0.058322
-0.069469
-0.076998
-0.082514
-0.087399
-0.092560
-0.098266
-0.104268
-0.109676
-0.113325
-0.114376
-0.112430
-0.107598
-0.100432
-0.091761
-0.082495
-0.073428
-0.065080
-0.057607
-0.050778
-0.043998
-0.036364
-0.026848
-0.014790
-0.000670
0.013521
0.027423
0.040416
0.052168
0.062488
0.071212
0.078148
0.083074
0.085775
0.086131
0.084213
0.080130
0.073716
0.064368
0.052647
0.038191
0.020906
0.001686
-0.017170
-0.032779
-0.043501
-0.049808
-0.052929
-0.053205
-0.050003
-0.044111
-0.037385
-0.030088
-0.022319
-0.015063
-0.008697
-0.003483
0.000512
0.003361
0.005244
0.006372
0.006909
0.007023
0.006840
0.006316
0.005460
0.004233
0.002612
0.000625
-0.001700
-0.004441
-0.007918
-0.012806
-0.019346
-0.027976
-0.038765
-0.051270
-0.064709
-0.078311
-0.091778
-0.105613
-0.128761
0.440373
0.435000
0.425942
0.414119
0.399343
0.381199
0.359194
0.332976
0.302339
0.267346
0.228458
0.186649
0.143443
0.100806
0.060839
0.025320
-0.004628
-0.028649
-0.047072
-0.060729
-0.070716
-0.078202
-0.084242
-0.089526
-0.094397
-0.098670
-0.101849
-0.103332
-0.102650
-0.099637
-0.094503
-0.087790
-0.080252
-0.072691
-0.065775
-0.059896
-0.055084
-0.050993
-0.046959
-0.041991
-0.034579
-0.022817
-0.008550
0.007271
0.023038
0.037767
0.051011
0.062597
0.072413
0.080313
0.086090
0.089536
0.090605
0.089754
0.086599
0.080866
0.072891
0.062108
0.047779
0.029398
0.007657
-0.014617
-0.033129
-0.044935
-0.050522
-0.052260
-0.052269
-0.049970
-0.045000
-0.037839
-0.030040
-0.022180
-0.014850
-0.008437
-0.003165
0.000908
0.003868
0.005918
0.007285
0.007952
0.008021
0.007539
0.006617
0.005209
0.003306
0.000964
-0.001677
-0.004470
-0.007400
-0.010712
-0.015182
-0.021246
-0.029476
-0.040063
-0.052581
-0.066224
-0.080149
-0.093875
-0.107534
-0.123967
0.451194
0.436989
0.424840
0.411665
0.396108
0.377417
0.355177
0.329054
0.298910
0.264869
0.227399
0.187396
0.146191
0.105454
0.066960
0.032263
0.002426
-0.022110
-0.041496
-0.056348
-0.067577
-0.076145
-0.082853
-0.088369
-0.092997
-0.096678
-0.099082
-0.099790
-0.098480
-0.095080
-0.089827
-0.083249
-0.076053
-0.068979
-0.062638
-0.057370
-0.053165
-0.049646
-0.046126
-0.041666
-0.035126
-0.025728
-0.011602
0.005208
0.022095
0.037760
0.051707
0.063793
0.073951
0.082070
0.087963
0.091415
0.092291
0.090482
0.086833
0.081393
0.073746
0.063332
0.049491
0.031797
0.010809
-0.011107
-0.030087
-0.042984
-0.049574
-0.052013
-0.051356
-0.048608
-0.043678
-0.036903
-0.029300
-0.021625
-0.014451
-0.008165
-0.002984
0.001031
0.003953
0.005925
0.007107
0.007750
0.007829
0.007351
0.006353
0.004834
0.002805
0.000336
-0.002444
-0.005411
-0.008584
-0.012253
-0.016716
-0.022873
-0.031108
-0.041444
-0.053561
-0.066818
-0.080529
-0.094268
-0.108026
-0.122840
