# vtk DataFile Version 3.0
Scalar Field
ASCII
DATASET RECTILINEAR_GRID
DIMENSIONS 100 26 1
X_COORDINATES 100 double
0.050000 0.150000 0.250000 0.350000 0.450000 0.550000 0.650000 0.750000 0.850000 0.950000 1.050000 1.150000 1.250000 1.350000 1.450000 1.550000 1.650000 1.750000 1.850000 1.950000 2.050000 2.150000 2.250000 2.350000 2.450000 2.550000 2.650000 2.750000 2.850000 2.950000 3.050000 3.150000 3.250000 3.350000 3.450000 3.550000 3.650000 3.750000 3.850000 3.950000 4.050000 4.150000 4.250000 4.350000 4.450000 4.550000 4.650000 4.750000 4.850000 4.950000 5.050000 5.150000 5.250000 5.350000 5.450000 5.550000 5.650000 5.750000 5.850000 5.950000 6.050000 6.150000 6.250000 6.350000 6.450000 6.550000 6.650000 6.750000 6.850000 6.950000 7.050000 7.150000 7.250000 7.350000 7.450000 7.550000 7.650000 7.750000 7.850000 7.950000 8.050000 8.150000 8.250000 8.350000 8.450000 8.550000 8.650000 8.750000 8.850000 8.950000 9.050000 9.150000 9.250000 9.350000 9.450000 9.550000 9.650000 9.750000 9.850000 9.950000 
Y_COORDINATES 26 double
0.050000 0.150000 0.250000 0.350000 0.450000 0.550000 0.650000 0.750000 0.850000 0.950000 1.050000 1.150000 1.250000 1.350000 1.450000 1.550000 1.650000 1.750000 1.850000 1.950000 2.050000 2.150000 2.250000 2.350000 2.450000 2.550000 
Z_COORDINATES 1 double
0.0
POINT_DATA 2600
SCALARS Skalarfeld double 1
LOOKUP_TABLE default
0.270957
0.255681
0.240509
0.222420
0.200338
0.173842
0.142965
0.108174
0.070426
0.031173
-0.007768
-0.044508
-0.077408
-0.105312
-0.127650
-0.143955
-0.154524
-0.159972
-0.161096
-0.158788
-0.153958
-0.147464
-0.140057
-0.132329
-0.124667
-0.117232
-0.109985
-0.102772
-0.095446
-0.087979
-0.080520
-0.073389
-0.067006
-0.061787
-0.058030
-0.055812
-0.054921
-0.054840
-0.054791
-0.053794
-0.050725
-0.044630
-0.034647
-0.021250
-0.007066
0.006515
0.018905
0.029894
0.039398
0.047339
0.053639
0.058263
0.061083
0.062350
0.061754
0.058851
0.053267
0.044872
0.034063
0.021987
0.010334
0.000556
-0.006885
-0.012414
-0.016568
-0.019462
-0.020951
-0.020762
-0.018999
-0.016158
-0.012727
-0.009067
-0.005512
-0.002354
0.000148
0.001756
0.002528
0.002397
0.001596
0.000478
-0.000537
-0.001029
-0.000691
0.000605
0.002716
0.005119
0.007540
0.009806
0.011772
0.013317
0.014370
0.014968
0.015182
0.015085
0.014752
0.014414
0.014120
0.013656
0.012704
0.010929
0.262101
0.255626
0.243419
0.226486
0.204704
0.177920
0.146196
0.110008
0.070401
0.029048
-0.011892
-0.050220
-0.084125
-0.112379
-0.134300
-0.150046
-0.159918
-0.164489
-0.164636
-0.161332
-0.155568
-0.148284
-0.140310
-0.132301
-0.124677
-0.117567
-0.110838
-0.104204
-0.097396
-0.090308
-0.083055
-0.075963
-0.069483
-0.064071
-0.060066
-0.057577
-0.056415
-0.056082
-0.055811
-0.054591
-0.051078
-0.043653
-0.032589
-0.019862
-0.006450
0.006498
0.018432
0.029128
0.038478
0.046387
0.052774
0.057647
0.061222
0.062978
0.062477
0.059625
0.053951
0.045265
0.034017
0.021543
0.009741
0.000072
-0.007229
-0.012833
-0.017292
-0.020480
-0.021909
-0.021691
-0.019704
-0.016699
-0.013154
-0.009355
-0.005662
-0.002364
0.000316
0.002226
0.003033
0.002745
0.001768
0.000456
-0.000736
-0.001321
-0.000880
0.000601
0.002642
0.005005
0.007464
0.009822
0.011897
0.013539
0.014673
0.015298
0.015483
0.015360
0.015084
0.014757
0.014526
0.014083
0.013067
0.010991
0.265190
0.261063
0.250720
0.234757
0.213145
0.185667
0.152247
0.113265
0.069874
0.024173
-0.020874
-0.062379
-0.098219
-0.127191
-0.148872
-0.163486
-0.171633
-0.174159
-0.172055
-0.166492
-0.158654
-0.149685
-0.140621
-0.132289
-0.125183
-0.119341
-0.114342
-0.109522
-0.104282
-0.098293
-0.091576
-0.084455
-0.077435
-0.071048
-0.065711
-0.061614
-0.058649
-0.056394
-0.054132
-0.050901
-0.045631
-0.037554
-0.026786
-0.014931
-0.003045
0.008468
0.019185
0.028899
0.037476
0.044791
0.050738
0.055276
0.058423
0.060114
0.059880
0.056873
0.051309
0.043123
0.032823
0.021503
0.010605
0.001175
-0.006552
-0.012861
-0.017877
-0.021263
-0.022557
-0.021685
-0.019685
-0.016973
-0.013568
-0.009739
-0.006023
-0.002690
-0.000018
0.001790
0.002596
0.002510
0.001643
0.000433
-0.000642
-0.001138
-0.000769
0.000474
0.002382
0.004741
0.007320
0.009877
0.012169
0.013989
0.015227
0.015933
0.016195
0.016173
0.016072
0.016020
0.015811
0.015245
0.013867
0.009175
0.275909
0.272539
0.263200
0.247892
0.226235
0.197640
0.161608
0.118191
0.068577
0.015531
-0.036249
-0.082603
-0.121073
-0.150703
-0.171515
-0.184121
-0.189468
-0.188699
-0.183057
-0.173954
-0.162837
-0.151134
-0.140205
-0.131203
-0.124815
-0.121011
-0.118857
-0.116996
-0.114256
-0.109970
-0.104035
-0.096808
-0.088895
-0.080948
-0.073500
-0.066853
-0.061026
-0.055746
-0.050496
-0.044611
-0.037469
-0.028769
-0.018738
-0.008078
0.002500
0.012510
0.021801
0.030220
0.037623
0.043858
0.048793
0.052375
0.054600
0.055400
0.054565
0.051871
0.046665
0.039023
0.029822
0.019769
0.009960
0.001171
-0.006289
-0.012390
-0.017051
-0.020047
-0.021236
-0.020765
-0.019022
-0.016140
-0.012639
-0.009097
-0.005704
-0.002554
-0.000069
0.001555
0.002217
0.001989
0.001091
-0.000085
-0.001107
-0.001596
-0.001320
-0.000228
0.001585
0.003952
0.006651
0.009422
0.012007
0.014197
0.015865
0.016937
0.017496
0.017684
0.017680
0.017690
0.017650
0.017376
0.016455
0.011104
0.292826
0.289842
0.281252
0.266595
0.244965
0.215082
0.175585
0.125690
0.066325
0.001058
-0.061247
-0.114249
-0.155558
-0.185125
-0.203859
-0.213032
-0.214076
-0.208416
-0.197649
-0.183441
-0.167545
-0.151742
-0.137864
-0.127775
-0.122531
-0.121831
-0.124109
-0.126743
-0.127535
-0.125396
-0.120191
-0.112474
-0.103117
-0.093008
-0.082861
-0.073127
-0.063972
-0.055308
-0.046862
-0.038283
-0.029292
-0.019815
-0.010042
-0.000338
0.008944
0.017615
0.025610
0.032737
0.038856
0.043814
0.047460
0.049801
0.050902
0.050733
0.049119
0.045810
0.040577
0.033546
0.025114
0.015808
0.006894
-0.001046
-0.007699
-0.012940
-0.016693
-0.018889
-0.019542
-0.018805
-0.016936
-0.014210
-0.010992
-0.007578
-0.004207
-0.001368
0.000783
0.002098
0.002449
0.001880
0.000645
-0.000842
-0.002162
-0.002911
-0.002868
-0.001968
-0.000253
0.002147
0.005010
0.008058
0.011000
0.013581
0.015622
0.017044
0.017911
0.018414
0.018804
0.019204
0.019740
0.020473
0.021197
0.020584
0.315213
0.312621
0.304992
0.291475
0.270518
0.239793
0.196366
0.137534
0.062950
-0.023611
-0.101932
-0.162712
-0.205637
-0.233149
-0.247680
-0.251343
-0.246082
-0.233654
-0.215857
-0.194631
-0.172098
-0.150421
-0.131968
-0.119968
-0.116450
-0.121004
-0.130429
-0.139866
-0.145565
-0.145949
-0.141090
-0.132103
-0.120426
-0.107368
-0.093915
-0.080690
-0.068004
-0.055925
-0.044375
-0.033232
-0.022420
-0.011976
-0.002046
0.007181
0.015550
0.022975
0.029494
0.035351
0.040134
0.043782
0.046053
0.047093
0.047129
0.046196
0.044095
0.040497
0.035114
0.027941
0.019208
0.010363
0.001891
-0.005392
-0.011196
-0.015404
-0.018019
-0.019111
-0.018820
-0.017356
-0.014985
-0.011991
-0.008670
-0.005301
-0.002155
0.000467
0.002379
0.003323
0.003213
0.002130
0.000315
-0.001847
-0.003878
-0.005367
-0.005917
-0.005406
-0.003911
-0.001522
0.001516
0.004882
0.008236
0.011280
0.013797
0.015684
0.016980
0.017865
0.018622
0.019577
0.021086
0.023435
0.026865
0.034133
0.342329
0.340315
0.334239
0.322939
0.304191
0.274279
0.227638
0.157354
0.058475
-0.068268
-0.169091
-0.235026
-0.274840
-0.296321
-0.303574
-0.299219
-0.285700
-0.264623
-0.237740
-0.207376
-0.176162
-0.146816
-0.121561
-0.105789
-0.103950
-0.115837
-0.136327
-0.156821
-0.169224
-0.172413
-0.167199
-0.155870
-0.140837
-0.124018
-0.106721
-0.089731
-0.073459
-0.058070
-0.043603
-0.030060
-0.017472
-0.005921
0.004474
0.013603
0.021388
0.027776
0.032710
0.036218
0.038998
0.041236
0.041949
0.041559
0.040654
0.039402
0.037510
0.034444
0.029702
0.023050
0.014680
0.005362
-0.003573
-0.010680
-0.016048
-0.019508
-0.021144
-0.021148
-0.019785
-0.017359
-0.014194
-0.010603
-0.006880
-0.003293
-0.000089
0.002481
0.004176
0.004756
0.004092
0.002239
-0.000528
-0.003752
-0.006880
-0.009393
-0.010904
-0.011095
-0.009895
-0.007493
-0.004215
-0.000454
0.003396
0.006992
0.010083
0.012539
0.014375
0.015760
0.017012
0.018573
0.021005
0.024955
0.031174
0.046225
0.373096
0.371942
0.368300
0.360886
0.347033
0.321646
0.275449
0.193043
0.053444
-0.155748
-0.278980
-0.334873
-0.360659
-0.370804
-0.367977
-0.354467
-0.332157
-0.301132
-0.263530
-0.222269
-0.180663
-0.142136
-0.109942
-0.086776
-0.084471
-0.103248
-0.136017
-0.171414
-0.195235
-0.201602
-0.195452
-0.181062
-0.162178
-0.141398
-0.120301
-0.099761
-0.080219
-0.061881
-0.044844
-0.029173
-0.014950
-0.002278
0.008729
0.017958
0.025283
0.030552
0.033673
0.034725
0.033958
0.031974
0.030733
0.029146
0.028122
0.027606
0.027020
0.025589
0.022598
0.017596
0.010564
0.002035
-0.006955
-0.015261
-0.020764
-0.024036
-0.025194
-0.024484
-0.022272
-0.018968
-0.014979
-0.010683
-0.006413
-0.002456
0.000932
0.003496
0.004973
0.005111
0.003757
0.000956
-0.002986
-0.007526
-0.011981
-0.015683
-0.018132
-0.018980
-0.017988
-0.015465
-0.011840
-0.007589
-0.003168
0.001039
0.004751
0.007816
0.010230
0.012150
0.013908
0.016014
0.019165
0.024249
0.032394
0.052378
0.405913
0.405918
0.405667
0.404121
0.398865
0.384463
0.348516
0.262455
0.054603
-0.341216
-0.444567
-0.446434
-0.443794
-0.441322
-0.430049
-0.411858
-0.381999
-0.341641
-0.293627
-0.241689
-0.189947
-0.142722
-0.104571
-0.076460
-0.070182
-0.090865
-0.128908
-0.172016
-0.208190
-0.222812
-0.216684
-0.200217
-0.178714
-0.155336
-0.131788
-0.108936
-0.087213
-0.066850
-0.047998
-0.030788
-0.015357
-0.001851
0.009565
0.018662
0.025057
0.028277
0.028135
0.025149
0.020464
0.015388
0.011181
0.009447
0.009629
0.011029
0.012755
0.013861
0.013492
0.011034
0.006258
-0.000563
-0.008640
-0.016818
-0.023786
-0.027461
-0.028778
-0.027955
-0.025400
-0.021599
-0.017049
-0.012208
-0.007480
-0.003203
0.000327
0.002826
0.004006
0.003599
0.001438
-0.002425
-0.007631
-0.013524
-0.019269
-0.024048
-0.027263
-0.028497
-0.027522
-0.024729
-0.020643
-0.015820
-0.010779
-0.005944
-0.001623
0.002018
0.004959
0.007344
0.009499
0.011952
0.015451
0.020986
0.029825
0.050836
0.438635
0.439988
0.443780
0.449656
0.456528
0.461139
0.453564
0.401281
0.159277
-0.678924
-0.634352
-0.514896
-0.487135
-0.481077
-0.475544
-0.457408
-0.424855
-0.380078
-0.326856
-0.269859
-0.213983
-0.163675
-0.123361
-0.096647
-0.090534
-0.103848
-0.132775
-0.168069
-0.200167
-0.220270
-0.220568
-0.204799
-0.183587
-0.160473
-0.137101
-0.114238
-0.092288
-0.071527
-0.052202
-0.034561
-0.018863
-0.005388
0.005513
0.013316
0.017300
0.016872
0.012223
0.004740
-0.003403
-0.010232
-0.014294
-0.014505
-0.011959
-0.007796
-0.003139
0.000960
0.003595
0.004077
0.002034
-0.002480
-0.008915
-0.016276
-0.023289
-0.028626
-0.030615
-0.030281
-0.027991
-0.024243
-0.019590
-0.014573
-0.009672
-0.005297
-0.001803
0.000483
0.001242
0.000187
-0.002852
-0.007792
-0.014203
-0.021310
-0.028142
-0.033765
-0.037513
-0.038870
-0.037716
-0.034506
-0.029851
-0.024390
-0.018704
-0.013261
-0.008389
-0.004266
-0.000923
0.001769
0.004115
0.006618
0.010005
0.015237
0.023525
0.042524
0.468779
0.471430
0.479163
0.492509
0.512359
0.539832
0.575509
0.615536
0.695733
0.008404
-0.566737
-0.499123
-0.487870
-0.486819
-0.486139
-0.473281
-0.446008
-0.406430
-0.358842
-0.308620
-0.261487
-0.219639
-0.186579
-0.166563
-0.155270
-0.151867
-0.159137
-0.172922
-0.188034
-0.198466
-0.200019
-0.191186
-0.173190
-0.153281
-0.132913
-0.112652
-0.092815
-0.073714
-0.055717
-0.039237
-0.024722
-0.012676
-0.003740
0.001235
0.001353
-0.003700
-0.012888
-0.023775
-0.033518
-0.040079
-0.041925
-0.039284
-0.033540
-0.026094
-0.018224
-0.011029
-0.005406
-0.002033
-0.001331
-0.003386
-0.007857
-0.013952
-0.020527
-0.026344
-0.029948
-0.030513
-0.029022
-0.025871
-0.021625
-0.016877
-0.012178
-0.008012
-0.004797
-0.002910
-0.002708
-0.004495
-0.008432
-0.014396
-0.021879
-0.030003
-0.037694
-0.043939
-0.048020
-0.049297
-0.047800
-0.044050
-0.038743
-0.032603
-0.026278
-0.020277
-0.014948
-0.010481
-0.006911
-0.004126
-0.001856
0.000351
0.003147
0.007384
0.014099
0.029194
0.493966
0.497578
0.508206
0.526972
0.556044
0.599228
0.663189
0.759325
0.893323
0.927002
0.000000
-0.488973
-0.478823
-0.470904
-0.466379
-0.459725
-0.441500
-0.414763
-0.385227
-0.356832
-0.331218
-0.307848
-0.286799
-0.267538
-0.244004
-0.221495
-0.202981
-0.188514
-0.179629
-0.173429
-0.167053
-0.158696
-0.148022
-0.133106
-0.117723
-0.102126
-0.086455
-0.070992
-0.056190
-0.042620
-0.030938
-0.021906
-0.016473
-0.015736
-0.020495
-0.030391
-0.043354
-0.056174
-0.065848
-0.070531
-0.068830
-0.062424
-0.052914
-0.041881
-0.030706
-0.020504
-0.012125
-0.006174
-0.003035
-0.002838
-0.005382
-0.010062
-0.015890
-0.021673
-0.026256
-0.028222
-0.027898
-0.025751
-0.022327
-0.018241
-0.014095
-0.010432
-0.007729
-0.006417
-0.006888
-0.009464
-0.014291
-0.021203
-0.029622
-0.038592
-0.046967
-0.053670
-0.057930
-0.058977
-0.057020
-0.052656
-0.046665
-0.039857
-0.032942
-0.026474
-0.020820
-0.016175
-0.012582
-0.009947
-0.008037
-0.006471
-0.004701
-0.002024
0.002385
0.012546
0.512443
0.516487
0.528354
0.549192
0.581080
0.627136
0.690944
0.774360
0.871688
0.960680
0.875444
0.000000
-0.463991
-0.449159
-0.435731
-0.427172
-0.419482
-0.412173
-0.408718
-0.410310
-0.413641
-0.412866
-0.403016
-0.376447
-0.336427
-0.291826
-0.247781
-0.207414
-0.174431
-0.149508
-0.131625
-0.118938
-0.109481
-0.101447
-0.091691
-0.081806
-0.071597
-0.061199
-0.051075
-0.041906
-0.034529
-0.029968
-0.029457
-0.034180
-0.044522
-0.059191
-0.075172
-0.088852
-0.097479
-0.098723
-0.092812
-0.082176
-0.068660
-0.053997
-0.039630
-0.026663
-0.015871
-0.007761
-0.002626
-0.000566
-0.001443
-0.004794
-0.009792
-0.015338
-0.020286
-0.023692
-0.024541
-0.023568
-0.021200
-0.018028
-0.014675
-0.011723
-0.009701
-0.009086
-0.010307
-0.013698
-0.019390
-0.027176
-0.036420
-0.046111
-0.055048
-0.062093
-0.066420
-0.067107
-0.064638
-0.059665
-0.053045
-0.045658
-0.038277
-0.031488
-0.025677
-0.021045
-0.017642
-0.015393
-0.014111
-0.013488
-0.013091
-0.012375
-0.010731
-0.005966
0.523424
0.527359
0.538810
0.558567
0.587892
0.628367
0.681581
0.746081
0.808672
0.830490
0.790208
0.675688
0.000000
-0.428022
-0.406885
-0.394927
-0.395052
-0.404861
-0.426979
-0.459513
-0.491955
-0.511450
-0.504892
-0.466210
-0.411108
-0.346116
-0.279861
-0.218337
-0.165988
-0.124948
-0.095485
-0.076359
-0.065263
-0.059445
-0.055928
-0.051754
-0.047403
-0.042704
-0.038082
-0.034291
-0.032349
-0.033542
-0.039299
-0.050630
-0.067171
-0.086585
-0.105094
-0.118913
-0.125464
-0.122248
-0.112026
-0.097168
-0.079832
-0.061863
-0.044712
-0.029423
-0.016681
-0.006879
-0.000206
0.003302
0.003771
0.001569
-0.002623
-0.007832
-0.012968
-0.017085
-0.019158
-0.019364
-0.018099
-0.015922
-0.013452
-0.011299
-0.010029
-0.010159
-0.012151
-0.016347
-0.022860
-0.031442
-0.041414
-0.051722
-0.061118
-0.068406
-0.072639
-0.072914
-0.069978
-0.064513
-0.057432
-0.049668
-0.042032
-0.035136
-0.029377
-0.024963
-0.021953
-0.020297
-0.019854
-0.020394
-0.021596
-0.023070
-0.024399
-0.025106
0.527120
0.530537
0.540410
0.557176
0.581397
0.613318
0.651637
0.691503
0.719706
0.710519
0.646437
0.561169
0.397481
0.000000
-0.388565
-0.370246
-0.373644
-0.393597
-0.433696
-0.490971
-0.550065
-0.585623
-0.569849
-0.519884
-0.449582
-0.369482
-0.288608
-0.213609
-0.148996
-0.097184
-0.058879
-0.033395
-0.018865
-0.012569
-0.011558
-0.012911
-0.014029
-0.014878
-0.015919
-0.018027
-0.022404
-0.030533
-0.043806
-0.062693
-0.085824
-0.109859
-0.130494
-0.143984
-0.147359
-0.139391
-0.124918
-0.106326
-0.085854
-0.065341
-0.046161
-0.029249
-0.015168
-0.004201
0.003565
0.008159
0.009711
0.008515
0.005120
0.000361
-0.004749
-0.009255
-0.012276
-0.013444
-0.013155
-0.011894
-0.010261
-0.008875
-0.008330
-0.009180
-0.011907
-0.016856
-0.024116
-0.033399
-0.043985
-0.054787
-0.064532
-0.072024
-0.075790
-0.075786
-0.072560
-0.066848
-0.059598
-0.051767
-0.044180
-0.037454
-0.031989
-0.027997
-0.025554
-0.024638
-0.025161
-0.026969
-0.029851
-0.033552
-0.037837
-0.043779
0.524502
0.527182
0.534818
0.547438
0.564854
0.586170
0.608831
0.627099
0.629893
0.599545
0.518574
0.378974
0.233794
-0.177845
-0.402259
-0.343536
-0.345929
-0.374588
-0.429197
-0.502571
-0.574011
-0.608958
-0.584407
-0.526984
-0.449251
-0.362612
-0.276052
-0.195901
-0.126195
-0.069110
-0.025428
0.005185
0.024012
0.033092
0.034901
0.031808
0.026115
0.020620
0.014293
0.006102
-0.005239
-0.021171
-0.042678
-0.069356
-0.098771
-0.126785
-0.148779
-0.161032
-0.159168
-0.147801
-0.130170
-0.109031
-0.086657
-0.064787
-0.044646
-0.027020
-0.012342
-0.000786
0.007640
0.013015
0.015474
0.015241
0.012729
0.008620
0.003814
-0.000745
-0.004297
-0.006200
-0.006669
-0.006142
-0.005198
-0.004460
-0.004543
-0.006025
-0.009405
-0.015016
-0.022914
-0.032768
-0.043818
-0.054947
-0.064854
-0.072304
-0.075647
-0.075508
-0.072256
-0.066647
-0.059625
-0.052130
-0.044963
-0.038724
-0.033802
-0.030414
-0.028656
-0.028546
-0.030053
-0.033100
-0.037573
-0.043345
-0.050336
-0.060991
0.516927
0.518747
0.523836
0.531925
0.542342
0.553599
0.562718
0.564276
0.549330
0.504615
0.412918
0.251517
-0.027302
-0.589485
-0.460982
-0.345623
-0.332620
-0.364220
-0.423691
-0.497890
-0.563852
-0.577486
-0.549801
-0.492204
-0.416601
-0.333392
-0.250543
-0.173514
-0.105635
-0.048603
-0.003025
0.031134
0.054432
0.068088
0.073673
0.072664
0.066304
0.058368
0.047795
0.033863
0.015579
-0.008057
-0.037272
-0.070665
-0.104915
-0.135391
-0.157500
-0.166199
-0.160495
-0.146656
-0.127460
-0.105511
-0.082896
-0.061144
-0.041283
-0.023938
-0.009427
0.002151
0.010837
0.016738
0.019983
0.020734
0.019277
0.016116
0.011991
0.007756
0.004157
0.001860
0.000924
0.000959
0.001413
0.001668
0.001095
-0.000901
-0.004820
-0.010973
-0.019370
-0.029630
-0.040958
-0.052218
-0.062091
-0.069269
-0.072373
-0.072305
-0.069371
-0.064292
-0.057959
-0.051245
-0.044893
-0.039453
-0.035294
-0.032638
-0.031608
-0.032273
-0.034661
-0.038774
-0.044583
-0.052071
-0.061293
-0.075836
0.505987
0.506956
0.509567
0.513391
0.517535
0.520340
0.518942
0.508729
0.482804
0.431558
0.342340
0.198966
-0.018175
-0.286950
-0.328868
-0.315700
-0.323861
-0.357130
-0.409372
-0.467617
-0.505254
-0.507417
-0.480109
-0.429596
-0.364416
-0.292578
-0.220461
-0.152562
-0.091689
-0.039307
0.004088
0.038623
0.064755
0.082931
0.093414
0.096681
0.096358
0.089288
0.076514
0.058328
0.034534
0.004954
-0.029710
-0.067181
-0.103554
-0.133955
-0.153637
-0.157247
-0.150374
-0.136243
-0.117681
-0.097014
-0.076007
-0.055901
-0.037517
-0.021349
-0.007650
0.003502
0.012145
0.018376
0.022307
0.024057
0.023809
0.021903
0.018890
0.015468
0.012306
0.010098
0.009049
0.008860
0.009039
0.008987
0.008071
0.005691
0.001359
-0.005197
-0.013931
-0.024410
-0.035807
-0.046996
-0.056706
-0.063110
-0.066461
-0.066832
-0.064633
-0.060546
-0.055367
-0.049862
-0.044674
-0.040287
-0.037038
-0.035158
-0.034810
-0.036118
-0.039179
-0.044059
-0.050801
-0.059471
-0.070234
-0.087521
0.493258
0.493466
0.493888
0.494056
0.493053
0.489318
0.480387
0.462629
0.431057
0.379330
0.300120
0.186579
0.037967
-0.122126
-0.207169
-0.248675
-0.282127
-0.320400
-0.363330
-0.401762
-0.421681
-0.420875
-0.398913
-0.359478
-0.308159
-0.250653
-0.191801
-0.135236
-0.083377
-0.037612
0.001462
0.033799
0.059653
0.079333
0.093012
0.103453
0.108348
0.104303
0.092029
0.072554
0.046524
0.014616
-0.021626
-0.059294
-0.094256
-0.121933
-0.135809
-0.137359
-0.130875
-0.118696
-0.103048
-0.085712
-0.068001
-0.050838
-0.034860
-0.020490
-0.007987
0.002517
0.010991
0.017472
0.022029
0.024745
0.025746
0.025255
0.023660
0.021492
0.019299
0.017746
0.016967
0.016835
0.016955
0.016770
0.015655
0.013019
0.008403
0.001586
-0.007318
-0.017813
-0.029052
-0.039940
-0.049036
-0.055312
-0.059015
-0.060154
-0.059100
-0.056433
-0.052807
-0.048838
-0.045047
-0.041841
-0.039532
-0.038368
-0.038564
-0.040309
-0.043762
-0.049037
-0.056220
-0.065417
-0.076860
-0.095429
0.480152
0.479717
0.478323
0.475544
0.470566
0.462067
0.448090
0.425945
0.392237
0.343109
0.274893
0.185637
0.078552
-0.032608
-0.116646
-0.175622
-0.221709
-0.262551
-0.299217
-0.327362
-0.341893
-0.341537
-0.325815
-0.296854
-0.258223
-0.213855
-0.167330
-0.121512
-0.078457
-0.039463
-0.005204
0.024112
0.048590
0.068518
0.084565
0.096821
0.102918
0.101450
0.092072
0.074997
0.050887
0.021019
-0.012407
-0.046121
-0.076080
-0.097301
-0.107193
-0.109341
-0.105479
-0.097389
-0.086581
-0.074176
-0.060979
-0.047597
-0.034530
-0.022198
-0.010946
-0.001031
0.007379
0.014205
0.019432
0.023096
0.025293
0.026187
0.026055
0.025325
0.024633
0.024059
0.023872
0.024067
0.024342
0.024189
0.023012
0.020242
0.015459
0.008512
-0.000401
-0.010713
-0.021552
-0.031827
-0.040366
-0.046887
-0.051243
-0.053506
-0.053960
-0.053031
-0.051192
-0.048894
-0.046536
-0.044459
-0.042971
-0.042355
-0.042896
-0.044845
-0.048403
-0.053708
-0.060842
-0.069897
-0.081085
-0.099205
0.467860
0.466893
0.464028
0.458946
0.451009
0.439184
0.422001
0.397563
0.363664
0.318088
0.259200
0.186978
0.104618
0.020007
-0.053916
-0.114023
-0.163127
-0.204168
-0.237787
-0.262292
-0.275782
-0.277356
-0.267076
-0.246409
-0.217764
-0.183909
-0.147492
-0.110747
-0.075371
-0.042514
-0.012851
0.013326
0.035998
0.055311
0.071669
0.083872
0.090832
0.091479
0.085224
0.072015
0.052420
0.027808
0.000487
-0.026364
-0.049098
-0.064651
-0.074134
-0.078406
-0.078666
-0.076008
-0.071190
-0.064626
-0.056561
-0.047273
-0.037162
-0.026720
-0.016449
-0.006805
0.001852
0.009283
0.015349
0.020008
0.023371
0.025606
0.026994
0.027809
0.028270
0.028678
0.029246
0.029956
0.030547
0.030557
0.029423
0.026608
0.021743
0.014759
0.005960
-0.003992
-0.014217
-0.023813
-0.032190
-0.039093
-0.044397
-0.048082
-0.050262
-0.051168
-0.051088
-0.050321
-0.049175
-0.047966
-0.047033
-0.046712
-0.047392
-0.049362
-0.052823
-0.057896
-0.064614
-0.072981
-0.083075
-0.098905
0.457367
0.455932
0.451837
0.444940
0.434813
0.420705
0.401557
0.376071
0.342857
0.300699
0.248984
0.188314
0.121206
0.052417
-0.011702
-0.067861
-0.115644
-0.155510
-0.187445
-0.210706
-0.224405
-0.228036
-0.221996
-0.207470
-0.186241
-0.160359
-0.131833
-0.102405
-0.073441
-0.045901
-0.020379
0.002825
0.023613
0.041980
0.057781
0.070057
0.078036
0.080890
0.078037
0.069347
0.055319
0.037217
0.017059
-0.002601
-0.019481
-0.032701
-0.042468
-0.049341
-0.054076
-0.057198
-0.058751
-0.058352
-0.055539
-0.050196
-0.042671
-0.033621
-0.023795
-0.013914
-0.004601
0.003756
0.010895
0.016791
0.021415
0.024884
0.027388
0.029222
0.030655
0.031940
0.033222
0.034460
0.035403
0.035614
0.034553
0.031710
0.026759
0.019748
0.011094
0.001522
-0.008119
-0.017156
-0.025472
-0.032984
-0.039489
-0.044731
-0.048580
-0.051086
-0.052400
-0.052720
-0.052313
-0.051549
-0.050863
-0.050546
-0.051212
-0.053136
-0.056457
-0.061242
-0.067417
-0.074830
-0.083321
-0.095288
0.449544
0.447591
0.442321
0.433886
0.422081
0.406380
0.386029
0.360149
0.327872
0.288560
0.242086
0.189190
0.131777
0.072933
0.016374
-0.035187
-0.080365
-0.118514
-0.149149
-0.171776
-0.185814
-0.191081
-0.188121
-0.177991
-0.162138
-0.142188
-0.119723
-0.096119
-0.072445
-0.049449
-0.027585
-0.007080
0.011979
0.029516
0.044973
0.057660
0.066931
0.072089
0.072593
0.068276
0.059538
0.047431
0.033521
0.019443
0.006126
-0.005391
-0.015398
-0.024496
-0.033281
-0.041919
-0.049802
-0.055576
-0.057790
-0.055816
-0.050099
-0.041639
-0.031565
-0.020881
-0.010493
-0.001069
0.007216
0.014194
0.019853
0.024303
0.027741
0.030429
0.032635
0.034589
0.036416
0.038058
0.039282
0.039641
0.038588
0.035617
0.030399
0.022914
0.014006
0.004746
-0.004150
-0.012629
-0.020947
-0.029175
-0.036927
-0.043568
-0.048656
-0.052146
-0.054201
-0.055008
-0.054755
-0.053882
-0.053298
-0.053232
-0.053891
-0.055694
-0.058870
-0.063421
-0.069149
-0.075728
-0.082703
-0.090532
0.445356
0.442514
0.435815
0.425892
0.412701
0.395835
0.374714
0.348720
0.317304
0.280145
0.237337
0.189599
0.138405
0.085936
0.034733
-0.012984
-0.055608
-0.092029
-0.121477
-0.143597
-0.157770
-0.164128
-0.163267
-0.156183
-0.144146
-0.128530
-0.110642
-0.091585
-0.072188
-0.052994
-0.034297
-0.016201
0.001343
0.018423
0.033962
0.047478
0.058295
0.065701
0.069136
0.068382
0.063751
0.056188
0.046966
0.036417
0.026110
0.016179
0.006199
-0.004522
-0.016582
-0.030012
-0.043736
-0.055354
-0.062011
-0.062318
-0.057272
-0.048497
-0.037357
-0.026046
-0.014863
-0.004350
0.004971
0.012892
0.019401
0.024615
0.028737
0.032021
0.034735
0.037119
0.039306
0.041212
0.042647
0.043079
0.041757
0.038104
0.031902
0.023668
0.014405
0.005296
-0.003010
-0.010792
-0.018797
-0.027376
-0.036000
-0.043579
-0.049262
-0.052907
-0.054849
-0.055653
-0.055730
-0.055317
-0.054621
-0.054433
-0.055128
-0.057006
-0.060170
-0.064677
-0.070219
-0.076336
-0.082404
-0.087415
0.446478
0.441188
0.432330
0.420809
0.406418
0.388673
0.367022
0.340991
0.310210
0.274521
0.234109
0.189635
0.142298
0.093794
0.046097
0.001110
-0.039556
-0.074564
-0.103083
-0.124712
-0.138932
-0.145972
-0.146465
-0.141370
-0.131855
-0.119141
-0.104359
-0.088438
-0.072047
-0.055595
-0.039291
-0.023197
-0.007156
0.009405
0.025351
0.040040
0.052543
0.061983
0.067703
0.069407
0.067358
0.062707
0.055799
0.047827
0.039450
0.030557
0.020642
0.009006
-0.004938
-0.021263
-0.038906
-0.055001
-0.065275
-0.066557
-0.060331
-0.051456
-0.040710
-0.028525
-0.016446
-0.005222
0.004710
0.013170
0.020159
0.025796
0.030274
0.033831
0.036727
0.039253
0.041632
0.043648
0.044922
0.044984
0.043303
0.039216
0.032377
0.023230
0.013066
0.003504
-0.004534
-0.011458
-0.018455
-0.026299
-0.034661
-0.042417
-0.048501
-0.052543
-0.054858
-0.055820
-0.055796
-0.055400
-0.054931
-0.054844
-0.055613
-0.057616
-0.061011
-0.065577
-0.071068
-0.077031
-0.082909
-0.087822
0.457408
0.443281
0.431313
0.418407
0.403166
0.384820
0.362856
0.336823
0.306417
0.271540
0.232397
0.189589
0.144169
0.097612
0.051653
0.008041
-0.031696
-0.066419
-0.095028
-0.116497
-0.130769
-0.138129
-0.139215
-0.134956
-0.126462
-0.114883
-0.101277
-0.086507
-0.071191
-0.055705
-0.040240
-0.024879
-0.009682
0.005088
0.021049
0.036583
0.050195
0.060767
0.067557
0.070222
0.068889
0.064029
0.057466
0.050250
0.042495
0.034017
0.024324
0.012782
-0.001092
-0.017266
-0.034708
-0.050898
-0.062105
-0.065537
-0.061298
-0.051623
-0.040209
-0.028005
-0.015932
-0.004686
0.005302
0.013843
0.020924
0.026651
0.031196
0.034773
0.037614
0.039933
0.041887
0.043587
0.044612
0.044453
0.042570
0.038433
0.031778
0.022951
0.013022
0.003408
-0.004958
-0.012205
-0.019191
-0.026580
-0.034243
-0.041411
-0.047267
-0.051420
-0.053967
-0.055223
-0.055589
-0.055406
-0.055159
-0.055371
-0.056394
-0.058498
-0.061823
-0.066255
-0.071536
-0.077270
-0.083023
-0.088709
