# vtk DataFile Version 3.0
Scalar Field
ASCII
DATASET RECTILINEAR_GRID
DIMENSIONS 100 26 1
X_COORDINATES 100 double
0.050000 0.150000 0.250000 0.350000 0.450000 0.550000 0.650000 0.750000 0.850000 0.950000 1.050000 1.150000 1.250000 1.350000 1.450000 1.550000 1.650000 1.750000 1.850000 1.950000 2.050000 2.150000 2.250000 2.350000 2.450000 2.550000 2.650000 2.750000 2.850000 2.950000 3.050000 3.150000 3.250000 3.350000 3.450000 3.550000 3.650000 3.750000 3.850000 3.950000 4.050000 4.150000 4.250000 4.350000 4.450000 4.550000 4.650000 4.750000 4.850000 4.950000 5.050000 5.150000 5.250000 5.350000 5.450000 5.550000 5.650000 5.750000 5.850000 5.950000 6.050000 6.150000 6.250000 6.350000 6.450000 6.550000 6.650000 6.750000 6.850000 6.950000 7.050000 7.150000 7.250000 7.350000 7.450000 7.550000 7.650000 7.750000 7.850000 7.950000 8.050000 8.150000 8.250000 8.350000 8.450000 8.550000 8.650000 8.750000 8.850000 8.950000 9.050000 9.150000 9.250000 9.350000 9.450000 9.550000 9.650000 9.750000 9.850000 9.950000 
Y_COORDINATES 26 double
0.050000 0.150000 0.250000 0.350000 0.450000 0.550000 0.650000 0.750000 0.850000 0.950000 1.050000 1.150000 1.250000 1.350000 1.450000 1.550000 1.650000 1.750000 1.850000 1.950000 2.050000 2.150000 2.250000 2.350000 2.450000 2.550000 
Z_COORDINATES 1 double
0.0
POINT_DATA 2600
SCALARS Skalarfeld double 1
LOOKUP_TABLE default
0.151082
0.147027
0.138323
0.124552
0.105460
0.080933
0.051084
0.016392
-0.022155
-0.063012
-0.104163
-0.143428
-0.178800
-0.208696
-0.232070
-0.248419
-0.257703
-0.260229
-0.256736
-0.248184
-0.235661
-0.220301
-0.203221
-0.185462
-0.167969
-0.151567
-0.136938
-0.124516
-0.114618
-0.107255
-0.102078
-0.098407
-0.095365
-0.092053
-0.087631
-0.081747
-0.074373
-0.065739
-0.056246
-0.046366
-0.036560
-0.027234
-0.018698
-0.011158
-0.004718
0.000617
0.004919
0.008319
0.010982
0.013077
0.014759
0.016152
0.017345
0.018403
0.019367
0.020269
0.021126
0.021997
0.022892
0.023811
0.024760
0.025739
0.026742
0.027760
0.028776
0.029771
0.030728
0.031627
0.032455
0.033201
0.033859
0.034427
0.034906
0.035300
0.035616
0.035861
0.036044
0.036172
0.036254
0.036298
0.036310
0.036297
0.036264
0.036217
0.036160
0.036095
0.036027
0.035959
0.035892
0.035828
0.035770
0.035718
0.035675
0.035640
0.035614
0.035594
0.035577
0.035551
0.035490
0.035613
0.154775
0.151578
0.143094
0.129253
0.109844
0.084698
0.053855
0.017760
-0.022551
-0.065364
-0.108377
-0.149154
-0.185569
-0.216041
-0.239583
-0.255753
-0.264572
-0.266396
-0.262008
-0.252422
-0.238782
-0.222277
-0.204077
-0.185274
-0.166856
-0.149687
-0.134489
-0.121875
-0.112161
-0.105332
-0.100955
-0.098205
-0.096012
-0.093361
-0.089385
-0.083697
-0.076312
-0.067527
-0.057804
-0.047664
-0.037604
-0.028045
-0.019306
-0.011596
-0.005014
0.000437
0.004835
0.008315
0.011044
0.013191
0.014910
0.016324
0.017523
0.018571
0.019516
0.020398
0.021262
0.022105
0.022957
0.023838
0.024757
0.025715
0.026706
0.027719
0.028734
0.029732
0.030693
0.031597
0.032429
0.033179
0.033839
0.034409
0.034888
0.035283
0.035599
0.035843
0.036025
0.036153
0.036234
0.036278
0.036290
0.036277
0.036244
0.036197
0.036140
0.036076
0.036008
0.035939
0.035872
0.035809
0.035751
0.035700
0.035658
0.035624
0.035601
0.035588
0.035585
0.035592
0.035620
0.035784
0.164294
0.161309
0.152919
0.138924
0.118970
0.092691
0.059918
0.020956
-0.023098
-0.070173
-0.117234
-0.161228
-0.199788
-0.231388
-0.255208
-0.270986
-0.278838
-0.279176
-0.272908
-0.261152
-0.245162
-0.226242
-0.205675
-0.184663
-0.164301
-0.145565
-0.129322
-0.116314
-0.106981
-0.101306
-0.098695
-0.098005
-0.097786
-0.096690
-0.093685
-0.088382
-0.080937
-0.071797
-0.061560
-0.050844
-0.040208
-0.030108
-0.020877
-0.012726
-0.005753
0.000044
0.004744
0.008479
0.011410
0.013702
0.015508
0.016952
0.018133
0.019126
0.019992
0.020779
0.021534
0.022286
0.023059
0.023875
0.024747
0.025675
0.026650
0.027658
0.028677
0.029684
0.030654
0.031568
0.032409
0.033165
0.033830
0.034401
0.034881
0.035274
0.035588
0.035830
0.036009
0.036134
0.036213
0.036254
0.036265
0.036250
0.036217
0.036169
0.036111
0.036046
0.035978
0.035909
0.035842
0.035778
0.035720
0.035669
0.035627
0.035595
0.035576
0.035570
0.035581
0.035615
0.035685
0.035871
0.179235
0.176338
0.168032
0.153908
0.133319
0.105507
0.069852
0.026305
-0.024035
-0.078533
-0.132460
-0.181571
-0.223258
-0.256293
-0.280246
-0.295155
-0.301259
-0.299149
-0.289865
-0.274667
-0.254970
-0.232254
-0.207978
-0.183513
-0.160103
-0.138862
-0.120868
-0.107194
-0.098520
-0.094877
-0.095396
-0.098342
-0.101503
-0.102858
-0.101206
-0.096297
-0.088546
-0.078675
-0.067501
-0.055796
-0.044208
-0.033235
-0.023225
-0.014388
-0.006814
-0.000497
0.004643
0.008736
0.011940
0.014416
0.016320
0.017784
0.018920
0.019821
0.020563
0.021213
0.021826
0.022450
0.023119
0.023861
0.024681
0.025580
0.026545
0.027558
0.028591
0.029617
0.030609
0.031543
0.032400
0.033169
0.033841
0.034416
0.034896
0.035288
0.035597
0.035835
0.036009
0.036128
0.036203
0.036239
0.036246
0.036228
0.036191
0.036141
0.036081
0.036014
0.035944
0.035873
0.035804
0.035739
0.035679
0.035627
0.035584
0.035553
0.035536
0.035535
0.035554
0.035602
0.035687
0.035875
0.199432
0.196669
0.188636
0.174663
0.153660
0.124199
0.084799
0.034565
-0.025678
-0.092669
-0.157442
-0.213668
-0.259004
-0.293242
-0.316746
-0.329936
-0.333222
-0.327465
-0.313784
-0.293606
-0.268573
-0.240419
-0.210858
-0.181492
-0.153758
-0.128902
-0.108225
-0.093480
-0.085843
-0.085509
-0.091177
-0.100090
-0.108678
-0.113639
-0.113515
-0.108694
-0.100049
-0.088756
-0.075977
-0.062696
-0.049665
-0.037423
-0.026318
-0.016548
-0.008185
-0.001211
0.004465
0.008978
0.012488
0.015164
0.017166
0.018643
0.019721
0.020512
0.021111
0.021601
0.022056
0.022535
0.023088
0.023747
0.024519
0.025396
0.026363
0.027395
0.028459
0.029522
0.030549
0.031515
0.032399
0.033186
0.033871
0.034452
0.034933
0.035322
0.035627
0.035857
0.036024
0.036136
0.036203
0.036233
0.036233
0.036210
0.036168
0.036113
0.036049
0.035979
0.035906
0.035832
0.035760
0.035692
0.035629
0.035575
0.035530
0.035497
0.035479
0.035478
0.035500
0.035550
0.035637
0.035815
0.224638
0.222158
0.214830
0.201684
0.181033
0.150420
0.106789
0.047327
-0.028383
-0.117271
-0.198486
-0.262989
-0.311000
-0.345111
-0.367011
-0.377168
-0.376412
-0.365627
-0.345903
-0.318887
-0.286551
-0.250993
-0.214284
-0.178353
-0.144895
-0.115292
-0.090760
-0.074220
-0.067856
-0.072262
-0.085528
-0.103395
-0.120223
-0.130602
-0.132007
-0.126617
-0.116122
-0.102433
-0.087195
-0.071640
-0.056621
-0.042687
-0.030166
-0.019221
-0.009896
-0.002144
0.004145
0.009123
0.012962
0.015844
0.017945
0.019429
0.020440
0.021109
0.021550
0.021865
0.022145
0.022469
0.022897
0.023471
0.024205
0.025076
0.026064
0.027138
0.028257
0.029378
0.030462
0.031476
0.032398
0.033214
0.033916
0.034506
0.034990
0.035375
0.035673
0.035895
0.036052
0.036154
0.036212
0.036233
0.036225
0.036194
0.036146
0.036086
0.036016
0.035941
0.035863
0.035785
0.035709
0.035636
0.035570
0.035511
0.035462
0.035425
0.035403
0.035399
0.035417
0.035462
0.035541
0.035700
0.254329
0.252377
0.246463
0.235338
0.216659
0.186572
0.139367
0.068013
-0.032463
-0.162775
-0.266533
-0.336036
-0.381857
-0.412750
-0.431787
-0.437708
-0.432162
-0.415078
-0.387542
-0.351602
-0.309745
-0.264579
-0.218670
-0.174414
-0.133909
-0.098825
-0.069795
-0.050097
-0.044485
-0.054179
-0.076376
-0.105158
-0.132775
-0.151505
-0.155523
-0.148856
-0.135573
-0.118635
-0.100278
-0.081970
-0.064612
-0.048725
-0.034589
-0.022321
-0.011921
-0.003313
0.003640
0.009110
0.013291
0.016382
0.018579
0.020062
0.020996
0.021528
0.021793
0.021914
0.022003
0.022157
0.022456
0.022950
0.023662
0.024550
0.025590
0.026740
0.027949
0.029160
0.030328
0.031413
0.032390
0.033245
0.033972
0.034575
0.035062
0.035444
0.035734
0.035946
0.036091
0.036181
0.036227
0.036238
0.036220
0.036180
0.036125
0.036057
0.035981
0.035900
0.035816
0.035732
0.035651
0.035573
0.035501
0.035436
0.035381
0.035338
0.035309
0.035297
0.035306
0.035341
0.035405
0.035538
0.287533
0.286425
0.282874
0.275519
0.261560
0.235720
0.188488
0.104274
-0.038179
-0.253293
-0.377185
-0.433996
-0.465401
-0.488527
-0.505599
-0.508990
-0.499571
-0.475684
-0.439006
-0.392418
-0.339161
-0.282513
-0.225682
-0.171709
-0.123312
-0.082731
-0.051745
-0.027561
-0.021123
-0.034601
-0.063503
-0.100428
-0.136726
-0.163885
-0.175859
-0.168829
-0.153103
-0.133259
-0.112174
-0.091494
-0.072117
-0.054520
-0.038938
-0.025453
-0.014048
-0.004626
0.002962
0.008905
0.013411
0.016696
0.018974
0.020440
0.021277
0.021651
0.021714
0.021614
0.021489
0.021460
0.021625
0.022052
0.022766
0.023709
0.024849
0.026131
0.027481
0.028831
0.030122
0.031308
0.032363
0.033272
0.034034
0.034655
0.035147
0.035526
0.035807
0.036006
0.036138
0.036215
0.036247
0.036245
0.036217
0.036167
0.036102
0.036026
0.035943
0.035855
0.035764
0.035674
0.035586
0.035501
0.035422
0.035350
0.035287
0.035235
0.035196
0.035174
0.035170
0.035189
0.035234
0.035336
0.322708
0.322762
0.322583
0.321047
0.315580
0.300484
0.262930
0.173841
-0.040463
-0.447649
-0.541472
-0.536869
-0.536323
-0.548342
-0.569844
-0.580877
-0.571054
-0.541773
-0.496590
-0.439689
-0.375194
-0.307098
-0.239380
-0.175989
-0.120504
-0.075763
-0.044074
-0.026538
-0.018388
-0.032603
-0.060942
-0.096165
-0.131319
-0.159561
-0.175738
-0.175796
-0.160292
-0.139897
-0.118114
-0.096722
-0.076626
-0.058302
-0.041997
-0.027820
-0.015779
-0.005804
0.002239
0.008528
0.013272
0.016690
0.019001
0.020411
0.021112
0.021286
0.021107
0.020749
0.020380
0.020152
0.020188
0.020572
0.021324
0.022388
0.023713
0.025212
0.026786
0.028344
0.029813
0.031142
0.032303
0.033285
0.034093
0.034738
0.035238
0.035615
0.035887
0.036073
0.036189
0.036251
0.036269
0.036254
0.036213
0.036152
0.036077
0.035992
0.035901
0.035805
0.035707
0.035610
0.035514
0.035422
0.035334
0.035254
0.035181
0.035118
0.035067
0.035031
0.035011
0.035010
0.035032
0.035099
0.357731
0.359152
0.363041
0.368953
0.375625
0.379463
0.369890
0.313246
0.059660
-0.808778
-0.726919
-0.592040
-0.562321
-0.563980
-0.593585
-0.628660
-0.625188
-0.595637
-0.547266
-0.485394
-0.414760
-0.339944
-0.265876
-0.198062
-0.141825
-0.099958
-0.072266
-0.057983
-0.057541
-0.066381
-0.083479
-0.105387
-0.128101
-0.147282
-0.159015
-0.160916
-0.152364
-0.134507
-0.114692
-0.094835
-0.075857
-0.058273
-0.042397
-0.028417
-0.016418
-0.006397
0.001725
0.008088
0.012870
0.016274
0.018506
0.019767
0.020251
0.020150
0.019659
0.018984
0.018332
0.017895
0.017824
0.018220
0.019085
0.020398
0.022048
0.023897
0.025807
0.027662
0.029377
0.030897
0.032197
0.033275
0.034141
0.034817
0.035330
0.035705
0.035967
0.036139
0.036241
0.036286
0.036289
0.036260
0.036206
0.036134
0.036049
0.035955
0.035855
0.035751
0.035645
0.035540
0.035436
0.035335
0.035238
0.035147
0.035064
0.034988
0.034923
0.034871
0.034832
0.034809
0.034805
0.034832
0.390118
0.392868
0.400761
0.414253
0.434082
0.461059
0.495141
0.531208
0.605799
-0.101489
-0.647705
-0.568491
-0.563368
-0.565518
-0.588153
-0.625253
-0.637009
-0.613510
-0.570775
-0.513748
-0.447442
-0.377089
-0.308607
-0.248044
-0.201340
-0.170246
-0.150773
-0.140071
-0.134199
-0.129675
-0.128247
-0.129768
-0.133194
-0.136770
-0.138336
-0.135995
-0.128856
-0.117547
-0.101555
-0.085019
-0.068774
-0.053357
-0.039137
-0.026383
-0.015273
-0.005891
0.001768
0.007779
0.012270
0.015402
0.017349
0.018289
0.018404
0.017891
0.016971
0.015892
0.014915
0.014281
0.014179
0.014716
0.015883
0.017661
0.019834
0.022194
0.024562
0.026803
0.028825
0.030579
0.032046
0.033236
0.034171
0.034885
0.035413
0.035788
0.036042
0.036200
0.036286
0.036316
0.036303
0.036260
0.036194
0.036111
0.036016
0.035912
0.035803
0.035691
0.035577
0.035464
0.035351
0.035241
0.035135
0.035033
0.034937
0.034847
0.034767
0.034696
0.034636
0.034589
0.034557
0.034541
0.417465
0.421210
0.432089
0.451177
0.480554
0.523878
0.587597
0.682880
0.816907
0.855943
0.000000
-0.567829
-0.567166
-0.562627
-0.573823
-0.591320
-0.600695
-0.586946
-0.554232
-0.508663
-0.455842
-0.401709
-0.352767
-0.314935
-0.289096
-0.271620
-0.258174
-0.244387
-0.225661
-0.203309
-0.181134
-0.160994
-0.143914
-0.130132
-0.119096
-0.109663
-0.100575
-0.090939
-0.080580
-0.068210
-0.055645
-0.043404
-0.031830
-0.021230
-0.011846
-0.003835
0.002734
0.007867
0.011630
0.014124
0.015472
0.015815
0.015314
0.014176
0.012661
0.011081
0.009773
0.009039
0.009087
0.010011
0.011863
0.014382
0.017272
0.020273
0.023184
0.025861
0.028220
0.030222
0.031866
0.033173
0.034181
0.034934
0.035478
0.035855
0.036101
0.036248
0.036319
0.036334
0.036308
0.036252
0.036174
0.036080
0.035976
0.035864
0.035746
0.035626
0.035504
0.035382
0.035261
0.035141
0.035024
0.034911
0.034801
0.034697
0.034599
0.034509
0.034426
0.034354
0.034291
0.034232
0.437970
0.442179
0.454393
0.475748
0.508293
0.555155
0.620270
0.705257
0.802823
0.894980
0.816524
0.000000
-0.559731
-0.552296
-0.541903
-0.538627
-0.535959
-0.524373
-0.499282
-0.467271
-0.434823
-0.408015
-0.391201
-0.384978
-0.383745
-0.378545
-0.368727
-0.345218
-0.310266
-0.269555
-0.227821
-0.188379
-0.153452
-0.124335
-0.101436
-0.084282
-0.071668
-0.062030
-0.053902
-0.046126
-0.037577
-0.028999
-0.020671
-0.012883
-0.005896
0.000094
0.004966
0.008671
0.011210
0.012618
0.012959
0.012330
0.010881
0.008850
0.006571
0.004458
0.002936
0.002350
0.002903
0.004741
0.007587
0.011040
0.014749
0.018432
0.021888
0.024986
0.027659
0.029888
0.031689
0.033099
0.034171
0.034959
0.035518
0.035897
0.036137
0.036274
0.036333
0.036336
0.036298
0.036231
0.036143
0.036041
0.035928
0.035808
0.035683
0.035555
0.035426
0.035296
0.035165
0.035036
0.034908
0.034782
0.034659
0.034540
0.034424
0.034313
0.034207
0.034107
0.034014
0.033908
0.450794
0.454914
0.466792
0.487231
0.517474
0.558944
0.612765
0.678768
0.746245
0.772197
0.738069
0.626596
0.000000
-0.527045
-0.501794
-0.478868
-0.463614
-0.445892
-0.424130
-0.405439
-0.396185
-0.400464
-0.418232
-0.444266
-0.467758
-0.477517
-0.464055
-0.425339
-0.374582
-0.317416
-0.259379
-0.204706
-0.156242
-0.115644
-0.083589
-0.059894
-0.043560
-0.032904
-0.025914
-0.020748
-0.016126
-0.011174
-0.006264
-0.001600
0.002583
0.006085
0.008770
0.010549
0.011371
0.011210
0.010074
0.008035
0.005270
0.002097
-0.001023
-0.003551
-0.004998
-0.005065
-0.003442
-0.000269
0.003742
0.008175
0.012673
0.016971
0.020889
0.024326
0.027240
0.029635
0.031547
0.033029
0.034144
0.034956
0.035525
0.035905
0.036141
0.036271
0.036322
0.036316
0.036270
0.036195
0.036100
0.035991
0.035871
0.035745
0.035614
0.035479
0.035343
0.035204
0.035066
0.034927
0.034788
0.034650
0.034513
0.034377
0.034243
0.034111
0.033981
0.033854
0.033729
0.033577
0.456096
0.459695
0.469984
0.487365
0.512431
0.545555
0.585791
0.628295
0.660606
0.656052
0.597014
0.515122
0.354357
0.000000
-0.459646
-0.417498
-0.402154
-0.374181
-0.350575
-0.341459
-0.352006
-0.382681
-0.431271
-0.486625
-0.530429
-0.547404
-0.522887
-0.474539
-0.411984
-0.342865
-0.273572
-0.208832
-0.151686
-0.103776
-0.065701
-0.037296
-0.017730
-0.005525
0.001330
0.004991
0.007181
0.008872
0.010569
0.012147
0.013420
0.014208
0.014385
0.013850
0.012514
0.010307
0.007213
0.003327
-0.001080
-0.005538
-0.009419
-0.012074
-0.013003
-0.012001
-0.008674
-0.004183
0.000929
0.006218
0.011351
0.016101
0.020329
0.023972
0.027019
0.029497
0.031459
0.032970
0.034101
0.034921
0.035493
0.035873
0.036108
0.036234
0.036282
0.036272
0.036222
0.036142
0.036043
0.035929
0.035805
0.035674
0.035538
0.035398
0.035255
0.035110
0.034963
0.034814
0.034665
0.034514
0.034363
0.034211
0.034059
0.033905
0.033751
0.033597
0.033441
0.033243
0.454828
0.457690
0.465793
0.479171
0.497650
0.520433
0.545123
0.566123
0.572591
0.546789
0.471115
0.336169
0.193591
-0.212466
-0.445273
-0.390128
-0.363237
-0.319003
-0.288496
-0.284545
-0.310655
-0.363003
-0.433400
-0.505718
-0.559085
-0.573989
-0.543451
-0.489317
-0.420743
-0.346084
-0.272037
-0.203339
-0.142872
-0.092022
-0.051128
-0.019902
0.002325
0.016630
0.024626
0.028328
0.029633
0.029711
0.028766
0.027646
0.026217
0.024305
0.021837
0.018729
0.014879
0.010207
0.004731
-0.001346
-0.007577
-0.013281
-0.017662
-0.020022
-0.019986
-0.016875
-0.012103
-0.006446
-0.000469
0.005416
0.010931
0.015905
0.020251
0.023944
0.027002
0.029474
0.031422
0.032920
0.034040
0.034853
0.035421
0.035800
0.036035
0.036162
0.036210
0.036201
0.036151
0.036071
0.035971
0.035856
0.035730
0.035596
0.035456
0.035312
0.035164
0.035012
0.034858
0.034700
0.034541
0.034378
0.034213
0.034045
0.033874
0.033700
0.033522
0.033340
0.033154
0.032911
0.448327
0.450339
0.455943
0.464871
0.476467
0.489297
0.500467
0.504668
0.493107
0.452687
0.366382
0.211052
-0.061770
-0.618523
-0.500418
-0.390155
-0.332933
-0.281458
-0.249370
-0.253581
-0.289541
-0.351204
-0.427881
-0.502129
-0.553698
-0.556719
-0.525660
-0.471306
-0.403404
-0.330242
-0.258180
-0.191564
-0.132936
-0.083409
-0.043097
-0.011507
0.012119
0.028591
0.038865
0.044434
0.047071
0.047738
0.046404
0.043501
0.039952
0.035606
0.030556
0.024785
0.018218
0.010825
0.002744
-0.005624
-0.013578
-0.020206
-0.024603
-0.026145
-0.023956
-0.019161
-0.013210
-0.006763
-0.000314
0.005804
0.011388
0.016331
0.020595
0.024187
0.027147
0.029534
0.031415
0.032865
0.033954
0.034749
0.035309
0.035686
0.035923
0.036055
0.036108
0.036104
0.036059
0.035983
0.035885
0.035771
0.035646
0.035511
0.035369
0.035222
0.035070
0.034913
0.034752
0.034586
0.034417
0.034243
0.034064
0.033881
0.033692
0.033498
0.033297
0.033089
0.032872
0.032586
0.438137
0.439305
0.442473
0.447205
0.452605
0.457039
0.457691
0.450032
0.427294
0.380072
0.296032
0.159197
-0.050033
-0.311984
-0.351663
-0.324735
-0.290868
-0.259651
-0.243708
-0.253007
-0.289345
-0.347877
-0.416865
-0.479499
-0.513394
-0.509219
-0.478604
-0.428654
-0.367291
-0.301521
-0.236767
-0.176743
-0.123635
-0.078414
-0.041190
-0.011525
0.011319
0.028210
0.040143
0.048292
0.053612
0.056220
0.057127
0.055748
0.051574
0.045753
0.038726
0.030633
0.021536
0.011571
0.001105
-0.009172
-0.018271
-0.025114
-0.028822
-0.028231
-0.024078
-0.018337
-0.011840
-0.005183
0.001240
0.007188
0.012530
0.017210
0.021223
0.024597
0.027378
0.029626
0.031407
0.032788
0.033835
0.034606
0.035157
0.035535
0.035777
0.035917
0.035980
0.035985
0.035948
0.035879
0.035787
0.035677
0.035554
0.035421
0.035279
0.035130
0.034974
0.034813
0.034646
0.034474
0.034295
0.034111
0.033919
0.033721
0.033515
0.033301
0.033078
0.032845
0.032600
0.032274
0.425791
0.426210
0.427244
0.428398
0.428736
0.426696
0.419840
0.404602
0.376106
0.328196
0.253845
0.146564
0.005948
-0.144978
-0.219224
-0.241692
-0.242123
-0.237268
-0.239338
-0.256318
-0.290458
-0.338214
-0.390191
-0.432093
-0.449033
-0.442792
-0.416167
-0.374292
-0.323046
-0.267846
-0.213029
-0.161672
-0.115670
-0.075946
-0.042701
-0.015652
0.005788
0.022374
0.034963
0.044406
0.051309
0.056550
0.059908
0.060021
0.056985
0.051315
0.043563
0.034149
0.023399
0.011732
-0.000164
-0.011265
-0.020346
-0.026348
-0.027960
-0.025259
-0.020541
-0.014700
-0.008422
-0.002172
0.003754
0.009189
0.014049
0.018305
0.021963
0.025051
0.027612
0.029699
0.031366
0.032673
0.033675
0.034424
0.034968
0.035348
0.035600
0.035752
0.035828
0.035846
0.035820
0.035761
0.035678
0.035574
0.035456
0.035326
0.035186
0.035036
0.034880
0.034715
0.034543
0.034364
0.034178
0.033983
0.033780
0.033568
0.033346
0.033113
0.032868
0.032611
0.032340
0.031977
0.412656
0.412460
0.411762
0.410087
0.406577
0.399885
0.388063
0.368473
0.337815
0.292388
0.228767
0.145324
0.045662
-0.056142
-0.128171
-0.170236
-0.193277
-0.208137
-0.223680
-0.245770
-0.276269
-0.312686
-0.348378
-0.373854
-0.383328
-0.376720
-0.355139
-0.321815
-0.280815
-0.236118
-0.191080
-0.148213
-0.109163
-0.074825
-0.045502
-0.021074
-0.001136
0.014880
0.027626
0.037740
0.045767
0.052151
0.056142
0.057285
0.055464
0.050843
0.043713
0.034449
0.023553
0.011744
0.000037
-0.010296
-0.017935
-0.021911
-0.021489
-0.018733
-0.014449
-0.009329
-0.003893
0.001504
0.006635
0.011368
0.015632
0.019398
0.022666
0.025453
0.027789
0.029714
0.031271
0.032508
0.033470
0.034201
0.034742
0.035130
0.035395
0.035563
0.035656
0.035690
0.035679
0.035634
0.035560
0.035466
0.035355
0.035229
0.035092
0.034944
0.034786
0.034620
0.034444
0.034260
0.034066
0.033863
0.033649
0.033423
0.033186
0.032935
0.032671
0.032392
0.032097
0.031699
0.399854
0.399182
0.397161
0.393376
0.387106
0.377269
0.362390
0.340610
0.309805
0.267886
0.213402
0.146572
0.070891
-0.005419
-0.069034
-0.116293
-0.150342
-0.176584
-0.200284
-0.225149
-0.252430
-0.280586
-0.305625
-0.322363
-0.328185
-0.322123
-0.304869
-0.278510
-0.245841
-0.209755
-0.172827
-0.137085
-0.103947
-0.074256
-0.048380
-0.026326
-0.007849
0.007449
0.020033
0.030369
0.038866
0.045506
0.049922
0.051829
0.051052
0.047594
0.041626
0.033496
0.023781
0.013333
0.003271
-0.005165
-0.010891
-0.013116
-0.012925
-0.010916
-0.007659
-0.003657
0.000692
0.005102
0.009377
0.013388
0.017060
0.020352
0.023248
0.025751
0.027877
0.029654
0.031112
0.032288
0.033218
0.033938
0.034483
0.034884
0.035167
0.035355
0.035468
0.035522
0.035529
0.035498
0.035438
0.035354
0.035251
0.035132
0.034999
0.034853
0.034697
0.034529
0.034351
0.034162
0.033963
0.033751
0.033527
0.033290
0.033038
0.032771
0.032488
0.032188
0.031871
0.031444
0.388254
0.387229
0.384239
0.378954
0.370801
0.358949
0.342325
0.319661
0.289634
0.251129
0.203667
0.148004
0.086828
0.025053
-0.030899
-0.077849
-0.116106
-0.147903
-0.175929
-0.202228
-0.227501
-0.250853
-0.270058
-0.282499
-0.286354
-0.280991
-0.266923
-0.245597
-0.219013
-0.189328
-0.158543
-0.128306
-0.099827
-0.073880
-0.050854
-0.030832
-0.013686
0.000850
0.013097
0.023376
0.031945
0.038705
0.043469
0.046039
0.046248
0.044046
0.039548
0.033082
0.025220
0.016784
0.008760
0.002121
-0.002374
-0.004587
-0.004973
-0.003862
-0.001645
0.001305
0.004670
0.008205
0.011724
0.015100
0.018249
0.021118
0.023681
0.025930
0.027869
0.029514
0.030887
0.032013
0.032921
0.033638
0.034194
0.034613
0.034919
0.035131
0.035269
0.035345
0.035372
0.035359
0.035313
0.035242
0.035148
0.035037
0.034909
0.034767
0.034612
0.034445
0.034265
0.034073
0.033869
0.033651
0.033418
0.033170
0.032905
0.032622
0.032322
0.032002
0.031665
0.031213
0.378504
0.377217
0.373535
0.367219
0.357833
0.344757
0.327219
0.304369
0.275400
0.239749
0.197382
0.149125
0.096948
0.043945
-0.006287
-0.051374
-0.090677
-0.124816
-0.154924
-0.181947
-0.206164
-0.227001
-0.243208
-0.253368
-0.256226
-0.251492
-0.239628
-0.221744
-0.199372
-0.174198
-0.147832
-0.121639
-0.096661
-0.073593
-0.052818
-0.034459
-0.018457
-0.004638
0.007223
0.017340
0.025871
0.032726
0.037799
0.040945
0.042028
0.040986
0.037906
0.033069
0.026978
0.020322
0.013888
0.008411
0.004416
0.002055
0.001206
0.001644
0.003088
0.005247
0.007858
0.010705
0.013617
0.016471
0.019180
0.021688
0.023964
0.025991
0.027768
0.029300
0.030602
0.031690
0.032585
0.033308
0.033881
0.034324
0.034658
0.034899
0.035063
0.035164
0.035213
0.035219
0.035190
0.035131
0.035049
0.034946
0.034824
0.034687
0.034535
0.034369
0.034189
0.033995
0.033786
0.033563
0.033323
0.033065
0.032789
0.032491
0.032173
0.031834
0.031477
0.031006
0.371084
0.369572
0.365383
0.358372
0.348211
0.334428
0.316463
0.293737
0.265754
0.232254
0.193391
0.149923
0.103324
0.055700
0.009379
-0.033825
-0.072979
-0.107931
-0.138949
-0.166312
-0.189999
-0.209564
-0.224231
-0.233143
-0.235516
-0.231271
-0.220869
-0.205247
-0.185669
-0.163534
-0.140197
-0.116831
-0.094351
-0.073384
-0.054293
-0.037215
-0.022130
-0.008918
0.002584
0.012531
0.021029
0.027983
0.033325
0.036941
0.038709
0.038567
0.036579
0.032980
0.028194
0.022801
0.017448
0.012736
0.009090
0.006714
0.005615
0.005642
0.006581
0.008198
0.010270
0.012607
0.015056
0.017499
0.019856
0.022070
0.024108
0.025952
0.027593
0.029034
0.030281
0.031343
0.032234
0.032969
0.033564
0.034035
0.034399
0.034670
0.034862
0.034988
0.035060
0.035085
0.035072
0.035028
0.034956
0.034862
0.034748
0.034615
0.034467
0.034302
0.034123
0.033928
0.033718
0.033490
0.033245
0.032980
0.032692
0.032381
0.032045
0.031684
0.031305
0.030824
0.366409
0.364577
0.359962
0.352488
0.341866
0.327707
0.309576
0.287051
0.259812
0.227747
0.191084
0.150500
0.107172
0.062686
0.018777
-0.023055
-0.061801
-0.096950
-0.128324
-0.155828
-0.179258
-0.198198
-0.212073
-0.220311
-0.222462
-0.218560
-0.209069
-0.194838
-0.176984
-0.156738
-0.135304
-0.113734
-0.092860
-0.073262
-0.055285
-0.039075
-0.024632
-0.011866
-0.000653
0.009133
0.017602
0.024645
0.030209
0.034182
0.036439
0.036912
0.035646
0.032847
0.028893
0.024295
0.019622
0.015413
0.012043
0.009721
0.008502
0.008290
0.008916
0.010184
0.011900
0.013893
0.016022
0.018179
0.020286
0.022290
0.024156
0.025866
0.027410
0.028785
0.029992
0.031039
0.031931
0.032679
0.033294
0.033790
0.034180
0.034476
0.034692
0.034840
0.034931
0.034972
0.034974
0.034941
0.034879
0.034792
0.034684
0.034556
0.034411
0.034250
0.034071
0.033877
0.033665
0.033436
0.033187
0.032916
0.032620
0.032297
0.031941
0.031552
0.031136
0.030665
0.365084
0.362331
0.357311
0.349565
0.338726
0.324417
0.306255
0.283890
0.257076
0.225761
0.190191
0.150990
0.109191
0.066156
0.023382
-0.017769
-0.056267
-0.091458
-0.122971
-0.150546
-0.173888
-0.192593
-0.206200
-0.214208
-0.216311
-0.212614
-0.203590
-0.190044
-0.173021
-0.153674
-0.133131
-0.112388
-0.092239
-0.073247
-0.055754
-0.039914
-0.025740
-0.013165
-0.002084
0.007589
0.015879
0.022933
0.028635
0.032827
0.035363
0.036157
0.035244
0.032821
0.029250
0.025017
0.020649
0.016611
0.013289
0.010999
0.009746
0.009444
0.009944
0.011066
0.012632
0.014479
0.016472
0.018507
0.020507
0.022418
0.024208
0.025856
0.027352
0.028693
0.029879
0.030913
0.031801
0.032552
0.033174
0.033679
0.034080
0.034387
0.034615
0.034773
0.034872
0.034922
0.034929
0.034902
0.034845
0.034762
0.034656
0.034531
0.034387
0.034226
0.034049
0.033854
0.033642
0.033411
0.033160
0.032885
0.032585
0.032254
0.031884
0.031460
0.030956
0.030498
