# vtk DataFile Version 3.0
Scalar Field
ASCII
DATASET RECTILINEAR_GRID
DIMENSIONS 100 26 1
X_COORDINATES 100 double
0.050000 0.150000 0.250000 0.350000 0.450000 0.550000 0.650000 0.750000 0.850000 0.950000 1.050000 1.150000 1.250000 1.350000 1.450000 1.550000 1.650000 1.750000 1.850000 1.950000 2.050000 2.150000 2.250000 2.350000 2.450000 2.550000 2.650000 2.750000 2.850000 2.950000 3.050000 3.150000 3.250000 3.350000 3.450000 3.550000 3.650000 3.750000 3.850000 3.950000 4.050000 4.150000 4.250000 4.350000 4.450000 4.550000 4.650000 4.750000 4.850000 4.950000 5.050000 5.150000 5.250000 5.350000 5.450000 5.550000 5.650000 5.750000 5.850000 5.950000 6.050000 6.150000 6.250000 6.350000 6.450000 6.550000 6.650000 6.750000 6.850000 6.950000 7.050000 7.150000 7.250000 7.350000 7.450000 7.550000 7.650000 7.750000 7.850000 7.950000 8.050000 8.150000 8.250000 8.350000 8.450000 8.550000 8.650000 8.750000 8.850000 8.950000 9.050000 9.150000 9.250000 9.350000 9.450000 9.550000 9.650000 9.750000 9.850000 9.950000 
Y_COORDINATES 26 double
0.050000 0.150000 0.250000 0.350000 0.450000 0.550000 0.650000 0.750000 0.850000 0.950000 1.050000 1.150000 1.250000 1.350000 1.450000 1.550000 1.650000 1.750000 1.850000 1.950000 2.050000 2.150000 2.250000 2.350000 2.450000 2.550000 
Z_COORDINATES 1 double
0.0
POINT_DATA 2600
SCALARS Skalarfeld double 1
LOOKUP_TABLE default
0.167960
0.164067
0.155859
0.142946
0.125123
0.102339
0.074774
0.042970
0.007934
-0.028829
-0.065441
-0.099947
-0.130652
-0.156335
-0.176344
-0.190561
-0.199324
-0.203312
-0.203434
-0.200726
-0.196250
-0.190991
-0.185742
-0.180988
-0.176817
-0.172908
-0.168635
-0.163109
-0.155661
-0.145911
-0.133840
-0.119753
-0.104195
-0.087832
-0.071346
-0.055344
-0.040304
-0.026546
-0.014220
-0.003319
0.006297
0.014875
0.022719
0.030142
0.037356
0.044681
0.052020
0.058941
0.064812
0.068860
0.070311
0.068579
0.063489
0.055472
0.045614
0.035469
0.026620
0.020255
0.017162
0.017048
0.019251
0.022900
0.027101
0.031088
0.034323
0.036536
0.037724
0.038102
0.038028
0.037884
0.037960
0.038352
0.039071
0.040067
0.041103
0.042083
0.043003
0.043887
0.044727
0.045428
0.045777
0.045440
0.044014
0.041109
0.036467
0.030076
0.022234
0.013527
0.004669
-0.003758
-0.011392
-0.018458
-0.025520
-0.033355
-0.042779
-0.054437
-0.068635
-0.085352
-0.104497
-0.131637
0.171334
0.168301
0.160317
0.147345
0.129222
0.105844
0.077324
0.044170
0.007445
-0.031169
-0.069505
-0.105351
-0.136876
-0.162853
-0.182690
-0.196366
-0.204312
-0.207299
-0.206326
-0.202523
-0.197059
-0.191036
-0.185358
-0.180580
-0.176782
-0.173534
-0.170016
-0.165244
-0.158340
-0.148866
-0.136813
-0.122542
-0.106665
-0.089914
-0.073022
-0.056630
-0.041236
-0.027170
-0.014583
-0.003468
0.006324
0.015041
0.023002
0.030543
0.037987
0.045322
0.052419
0.058940
0.064318
0.067849
0.068825
0.066697
0.061275
0.052928
0.042672
0.032061
0.022845
0.016448
0.013352
0.013383
0.015858
0.019858
0.024444
0.028819
0.032425
0.034989
0.036512
0.037217
0.037462
0.037620
0.037967
0.038633
0.039503
0.040351
0.041150
0.041865
0.042519
0.043154
0.043771
0.044287
0.044490
0.044054
0.042581
0.039690
0.035127
0.028856
0.021129
0.012474
0.003591
-0.004797
-0.012328
-0.019296
-0.026197
-0.033790
-0.042879
-0.054081
-0.067664
-0.083571
-0.101643
-0.128589
0.180213
0.177393
0.169508
0.156393
0.137747
0.113277
0.082893
0.046978
0.006672
-0.035968
-0.078046
-0.116731
-0.149928
-0.176433
-0.195829
-0.208306
-0.214503
-0.215379
-0.212106
-0.206001
-0.198446
-0.190796
-0.184208
-0.179421
-0.176518
-0.174848
-0.173200
-0.170176
-0.164503
-0.155653
-0.143660
-0.129008
-0.112459
-0.094880
-0.077101
-0.059832
-0.043609
-0.028776
-0.015495
-0.003758
0.006577
0.015756
0.024077
0.031849
0.039335
0.046611
0.053441
0.059483
0.064198
0.066948
0.067105
0.064163
0.057907
0.048626
0.037271
0.025428
0.015038
0.007896
0.004703
0.005000
0.008039
0.012819
0.018316
0.023673
0.028296
0.031885
0.034423
0.036098
0.037212
0.038061
0.038847
0.039639
0.040387
0.040987
0.041431
0.041732
0.041953
0.042161
0.042389
0.042578
0.042533
0.041938
0.040401
0.037549
0.033118
0.027049
0.019538
0.011040
0.002189
-0.006363
-0.014147
-0.020984
-0.027569
-0.034575
-0.042731
-0.052624
-0.064563
-0.078618
-0.094822
-0.120365
0.194190
0.191458
0.183661
0.170431
0.151181
0.125238
0.092082
0.051764
0.005447
-0.044195
-0.092630
-0.135843
-0.171433
-0.198423
-0.216789
-0.227109
-0.230357
-0.227766
-0.220752
-0.210889
-0.199886
-0.189518
-0.181431
-0.176746
-0.175597
-0.176904
-0.178635
-0.178603
-0.174941
-0.167006
-0.154962
-0.139549
-0.121805
-0.102821
-0.083589
-0.064913
-0.047380
-0.031358
-0.017016
-0.004355
0.006760
0.016560
0.025323
0.033337
0.040848
0.048038
0.054618
0.060154
0.064109
0.065932
0.065106
0.061184
0.053929
0.043531
0.030818
0.017322
0.005098
-0.003768
-0.007535
-0.006990
-0.003226
0.002642
0.009467
0.016283
0.022420
0.027522
0.031512
0.034512
0.036745
0.038432
0.039731
0.040710
0.041363
0.041654
0.041571
0.041256
0.040924
0.040554
0.040229
0.039949
0.039563
0.038777
0.037217
0.034512
0.030387
0.024745
0.017719
0.009675
0.001156
-0.007250
-0.015091
-0.021986
-0.028150
-0.034384
-0.041317
-0.049500
-0.059307
-0.070946
-0.084596
-0.106618
0.213094
0.210494
0.202973
0.189908
0.170285
0.142784
0.106058
0.059352
0.003587
-0.057812
-0.116322
-0.165873
-0.204137
-0.230969
-0.247146
-0.253862
-0.252553
-0.244792
-0.232263
-0.216816
-0.200578
-0.185968
-0.175507
-0.171133
-0.173173
-0.179805
-0.187460
-0.192202
-0.191503
-0.184658
-0.172165
-0.155274
-0.135498
-0.114287
-0.092855
-0.072131
-0.052754
-0.035112
-0.019374
-0.005537
0.006533
0.017064
0.026333
0.034615
0.042130
0.048993
0.055282
0.060227
0.063280
0.064018
0.062120
0.057275
0.049265
0.038175
0.024627
0.009934
-0.003954
-0.014807
-0.020745
-0.020468
-0.016218
-0.009322
-0.001093
0.007353
0.015219
0.022044
0.027662
0.032114
0.035548
0.038136
0.040013
0.041253
0.041875
0.041872
0.041277
0.040208
0.038870
0.037760
0.036753
0.035917
0.035168
0.034242
0.032777
0.030401
0.026819
0.021890
0.015672
0.008435
0.000622
-0.007249
-0.014714
-0.021496
-0.027308
-0.032699
-0.038348
-0.044739
-0.052267
-0.061212
-0.071790
-0.088901
0.236677
0.234357
0.227537
0.215305
0.196079
0.167553
0.126869
0.071433
0.000975
-0.080962
-0.154876
-0.211946
-0.251848
-0.276712
-0.288679
-0.289719
-0.281815
-0.266886
-0.246805
-0.223604
-0.199826
-0.178714
-0.164303
-0.160231
-0.167410
-0.182884
-0.200528
-0.213020
-0.216375
-0.210587
-0.196857
-0.177365
-0.154395
-0.129899
-0.105372
-0.081866
-0.060064
-0.040350
-0.022878
-0.007626
0.005559
0.016919
0.026735
0.035264
0.042653
0.048849
0.054111
0.058145
0.059904
0.059186
0.056077
0.050545
0.042434
0.031666
0.018539
0.003982
-0.010396
-0.022545
-0.030560
-0.032261
-0.028168
-0.020864
-0.011710
-0.001968
0.007407
0.015811
0.022956
0.028780
0.033357
0.036811
0.039256
0.040759
0.041337
0.040994
0.039788
0.037901
0.035639
0.033355
0.031577
0.030183
0.029140
0.028204
0.027016
0.025195
0.022420
0.018499
0.013411
0.007325
0.000579
-0.006389
-0.013137
-0.019328
-0.024808
-0.029416
-0.033840
-0.038517
-0.043820
-0.050031
-0.057343
-0.069068
0.264420
0.262618
0.257193
0.246971
0.229750
0.201902
0.158044
0.091543
-0.002243
-0.123026
-0.218602
-0.280813
-0.318083
-0.337377
-0.342238
-0.335088
-0.318389
-0.294284
-0.264671
-0.231921
-0.198354
-0.167640
-0.146295
-0.141358
-0.155051
-0.182916
-0.215466
-0.240871
-0.249966
-0.245049
-0.229016
-0.205637
-0.178288
-0.149528
-0.121127
-0.094229
-0.069524
-0.047371
-0.027891
-0.011030
0.003390
0.015628
0.025968
0.034624
0.041634
0.046796
0.049725
0.051148
0.051058
0.048471
0.044328
0.038851
0.031764
0.022702
0.011574
-0.001149
-0.014317
-0.026209
-0.034933
-0.038940
-0.036314
-0.029609
-0.020442
-0.010195
0.000039
0.009508
0.017780
0.024672
0.030164
0.034318
0.037206
0.038866
0.039296
0.038499
0.036567
0.033765
0.030518
0.027310
0.024655
0.022751
0.021536
0.020759
0.020053
0.019022
0.017310
0.014670
0.010999
0.006367
0.001001
-0.004748
-0.010483
-0.015849
-0.020625
-0.024653
-0.027920
-0.031037
-0.034299
-0.037940
-0.042104
-0.048641
0.295366
0.294390
0.291282
0.284774
0.272255
0.248781
0.205398
0.127343
-0.005443
-0.206259
-0.323206
-0.376094
-0.400809
-0.409837
-0.405045
-0.387847
-0.361809
-0.327285
-0.286672
-0.242723
-0.198831
-0.157940
-0.125072
-0.115823
-0.134720
-0.174892
-0.223578
-0.265836
-0.286429
-0.282450
-0.263661
-0.235978
-0.204032
-0.170944
-0.138674
-0.108402
-0.080797
-0.056194
-0.034693
-0.016227
-0.000611
0.012408
0.023068
0.031449
0.037365
0.040429
0.040389
0.037566
0.033981
0.029909
0.025906
0.021819
0.017089
0.011080
0.003366
-0.006019
-0.016410
-0.026524
-0.034726
-0.039506
-0.039496
-0.033997
-0.025747
-0.015960
-0.005757
0.004008
0.012772
0.020224
0.026235
0.030781
0.033867
0.035482
0.035593
0.034201
0.031445
0.027688
0.023487
0.019458
0.016093
0.013805
0.012568
0.012132
0.012117
0.012100
0.011684
0.010558
0.008540
0.005600
0.001861
-0.002418
-0.006896
-0.011217
-0.015090
-0.018340
-0.020749
-0.022504
-0.023994
-0.025372
-0.026728
-0.028683
0.328006
0.328163
0.328340
0.327521
0.323357
0.310594
0.277278
0.196023
-0.002637
-0.385606
-0.481453
-0.482469
-0.481928
-0.480050
-0.466670
-0.444210
-0.409554
-0.365209
-0.314405
-0.260052
-0.205821
-0.157265
-0.118978
-0.101460
-0.120990
-0.165898
-0.221396
-0.272571
-0.306710
-0.308856
-0.289081
-0.259048
-0.224519
-0.188970
-0.154418
-0.122037
-0.092502
-0.066180
-0.043217
-0.023599
-0.007200
0.006130
0.016401
0.023314
0.026380
0.025445
0.021203
0.015162
0.008986
0.004935
0.002542
0.001117
-0.000180
-0.002182
-0.005558
-0.010621
-0.017154
-0.024333
-0.030871
-0.035367
-0.036753
-0.033392
-0.026853
-0.018395
-0.009107
0.000125
0.008648
0.016040
0.022060
0.026582
0.029533
0.030835
0.030417
0.028281
0.024621
0.019902
0.014799
0.010031
0.006153
0.003608
0.002506
0.002597
0.003480
0.004690
0.005775
0.006357
0.006169
0.005089
0.003145
0.000507
-0.002543
-0.005665
-0.008522
-0.010844
-0.012451
-0.013135
-0.013164
-0.012662
-0.011672
-0.009851
0.360277
0.361758
0.365870
0.372269
0.379911
0.385676
0.380041
0.331831
0.099445
-0.720284
-0.663423
-0.546088
-0.525354
-0.522091
-0.514425
-0.490863
-0.451845
-0.402496
-0.347743
-0.290531
-0.234133
-0.183923
-0.146598
-0.133601
-0.145184
-0.178224
-0.222772
-0.266291
-0.297966
-0.309795
-0.293831
-0.265200
-0.231893
-0.197406
-0.163620
-0.131655
-0.102234
-0.075834
-0.052749
-0.033129
-0.017046
-0.004633
0.003715
0.007355
0.005952
0.000271
-0.007666
-0.015452
-0.021302
-0.023570
-0.023083
-0.020884
-0.018038
-0.015534
-0.014188
-0.014546
-0.016737
-0.020359
-0.024494
-0.027935
-0.029546
-0.028528
-0.023876
-0.017278
-0.009573
-0.001582
0.006022
0.012739
0.018234
0.022284
0.024725
0.025413
0.024234
0.021196
0.016550
0.010851
0.004877
-0.000568
-0.004865
-0.007538
-0.008350
-0.007546
-0.005561
-0.002921
-0.000151
0.002288
0.004051
0.004930
0.004867
0.003955
0.002421
0.000583
-0.001203
-0.002602
-0.003355
-0.003228
-0.002062
-0.000071
0.002769
0.007508
0.389782
0.392538
0.400482
0.414140
0.434396
0.462386
0.498810
0.540248
0.624967
-0.047659
-0.595444
-0.527465
-0.525612
-0.529202
-0.528191
-0.510237
-0.476173
-0.431796
-0.384739
-0.338364
-0.294269
-0.256748
-0.230786
-0.216775
-0.213518
-0.220425
-0.237924
-0.258493
-0.275012
-0.280962
-0.273655
-0.250433
-0.221943
-0.192132
-0.162472
-0.133923
-0.107232
-0.083019
-0.061789
-0.043946
-0.029869
-0.020079
-0.015351
-0.016357
-0.022731
-0.032442
-0.042476
-0.050285
-0.054024
-0.053131
-0.048728
-0.042153
-0.034700
-0.027495
-0.021446
-0.017211
-0.015125
-0.015097
-0.016543
-0.018501
-0.019899
-0.019897
-0.017408
-0.012922
-0.007181
-0.000899
0.005278
0.010821
0.015327
0.018491
0.020068
0.019844
0.017670
0.013561
0.007822
0.001089
-0.005773
-0.011878
-0.016528
-0.019257
-0.019643
-0.017951
-0.014672
-0.010417
-0.005808
-0.001398
0.002381
0.005247
0.007072
0.007889
0.007876
0.007331
0.006622
0.006130
0.006197
0.007087
0.009104
0.012203
0.016412
0.023255
0.414223
0.417918
0.428667
0.447566
0.476733
0.519892
0.583589
0.679030
0.810797
0.845000
0.000000
-0.522512
-0.517559
-0.511261
-0.507735
-0.498192
-0.476570
-0.450425
-0.425806
-0.404260
-0.384393
-0.365323
-0.347919
-0.324933
-0.300633
-0.279811
-0.265065
-0.254637
-0.248209
-0.241458
-0.231175
-0.216314
-0.194956
-0.172230
-0.149220
-0.126617
-0.105101
-0.085381
-0.068155
-0.054087
-0.043895
-0.038489
-0.038871
-0.045353
-0.056518
-0.069229
-0.080031
-0.086580
-0.087055
-0.081928
-0.072757
-0.061224
-0.048872
-0.036971
-0.026484
-0.018086
-0.012176
-0.008823
-0.007688
-0.008032
-0.008889
-0.009342
-0.008627
-0.006048
-0.002322
0.002058
0.006534
0.010586
0.013776
0.015740
0.016163
0.014772
0.011390
0.006045
-0.000909
-0.008764
-0.016573
-0.023367
-0.028360
-0.031071
-0.030914
-0.028184
-0.023452
-0.017434
-0.010873
-0.004430
0.001374
0.006189
0.009834
0.012302
0.013738
0.014425
0.014739
0.015096
0.015894
0.017468
0.020080
0.023989
0.029146
0.037386
0.431911
0.436022
0.447950
0.468813
0.500625
0.546378
0.609560
0.692139
0.788817
0.879203
0.792604
0.000000
-0.503696
-0.489833
-0.475882
-0.468051
-0.463203
-0.462180
-0.468065
-0.479141
-0.488720
-0.489641
-0.472521
-0.435362
-0.387788
-0.338122
-0.292137
-0.252685
-0.221960
-0.199267
-0.182090
-0.167856
-0.154527
-0.139357
-0.124084
-0.108895
-0.094231
-0.080778
-0.069344
-0.060815
-0.056242
-0.056873
-0.063680
-0.076250
-0.092022
-0.107078
-0.117863
-0.122324
-0.118517
-0.108321
-0.093789
-0.076979
-0.059684
-0.043302
-0.028818
-0.016866
-0.007796
-0.001701
0.001633
0.002777
0.002584
0.001989
0.001804
0.002560
0.004407
0.006934
0.009665
0.012116
0.013836
0.014422
0.013505
0.010772
0.006024
-0.000691
-0.008970
-0.018036
-0.026863
-0.034386
-0.039723
-0.042352
-0.041563
-0.037693
-0.031406
-0.023547
-0.014990
-0.006519
0.001253
0.007912
0.013241
0.017211
0.019954
0.021748
0.022979
0.024087
0.025511
0.027636
0.030761
0.035167
0.040914
0.049969
0.442105
0.446097
0.457585
0.477330
0.506573
0.546899
0.599751
0.663493
0.724969
0.747113
0.706005
0.592084
0.000000
-0.469734
-0.449635
-0.440826
-0.447869
-0.468488
-0.503884
-0.547675
-0.584510
-0.599825
-0.574564
-0.522419
-0.454390
-0.380026
-0.308331
-0.245201
-0.194323
-0.156688
-0.131001
-0.114513
-0.104063
-0.096299
-0.088506
-0.081025
-0.073853
-0.067570
-0.063045
-0.061372
-0.063926
-0.072134
-0.086585
-0.105834
-0.126235
-0.143351
-0.153678
-0.155154
-0.146245
-0.130499
-0.110422
-0.088427
-0.066514
-0.046157
-0.028320
-0.013545
-0.002073
0.006075
0.011092
0.013445
0.013871
0.013246
0.012359
0.011961
0.012317
0.013243
0.014384
0.015310
0.015576
0.014755
0.012442
0.008292
0.002106
-0.006043
-0.015702
-0.026026
-0.035905
-0.044175
-0.049844
-0.052320
-0.050847
-0.045804
-0.037954
-0.028272
-0.017774
-0.007370
0.002231
0.010558
0.017370
0.022632
0.026484
0.029210
0.031208
0.032937
0.034866
0.037411
0.040899
0.045613
0.051685
0.061109
0.445029
0.448507
0.458446
0.475257
0.499454
0.531207
0.569219
0.608618
0.636450
0.627353
0.563097
0.478163
0.316538
0.000000
-0.437971
-0.426307
-0.433514
-0.465764
-0.521983
-0.592830
-0.653552
-0.674337
-0.637350
-0.569107
-0.483262
-0.391663
-0.303739
-0.225944
-0.162148
-0.113834
-0.080525
-0.060175
-0.049644
-0.045465
-0.044534
-0.044115
-0.044081
-0.045011
-0.047874
-0.053990
-0.064959
-0.082072
-0.105114
-0.131423
-0.156415
-0.175340
-0.184999
-0.181587
-0.167660
-0.146488
-0.121245
-0.094681
-0.068929
-0.045458
-0.025145
-0.008402
0.004675
0.014181
0.020350
0.023595
0.024548
0.024016
0.022812
0.021582
0.020817
0.020484
0.020321
0.019944
0.018917
0.016797
0.013157
0.007638
0.000049
-0.009502
-0.020506
-0.032050
-0.042942
-0.051917
-0.057874
-0.060117
-0.057948
-0.051781
-0.042467
-0.031104
-0.018842
-0.006711
0.004487
0.014229
0.022261
0.028557
0.033277
0.036724
0.039311
0.041515
0.043822
0.046668
0.050402
0.055270
0.061460
0.070931
0.441628
0.444371
0.452097
0.464808
0.482281
0.503585
0.526162
0.544323
0.547177
0.517235
0.436923
0.298200
0.154913
-0.252392
-0.452188
-0.391549
-0.404909
-0.449880
-0.522186
-0.608172
-0.678718
-0.686328
-0.643666
-0.567582
-0.473939
-0.375508
-0.281549
-0.198066
-0.128483
-0.074249
-0.035297
-0.010366
0.002707
0.006700
0.004349
-0.000746
-0.006623
-0.014157
-0.024450
-0.038949
-0.059196
-0.085903
-0.117727
-0.150823
-0.179867
-0.199841
-0.207515
-0.199408
-0.180481
-0.154524
-0.125098
-0.095134
-0.066772
-0.041380
-0.019683
-0.001927
0.011943
0.022149
0.028987
0.032842
0.034247
0.033903
0.032580
0.030950
0.029416
0.028203
0.027093
0.025725
0.023670
0.020471
0.015687
0.008957
0.000111
-0.010698
-0.022904
-0.035526
-0.047294
-0.056854
-0.063009
-0.064929
-0.062093
-0.054932
-0.044362
-0.031584
-0.017862
-0.004330
0.008131
0.018957
0.027889
0.034922
0.040244
0.044185
0.047175
0.049703
0.052264
0.055300
0.059166
0.064100
0.070263
0.079563
0.433237
0.435127
0.440349
0.448609
0.459209
0.470640
0.479929
0.481713
0.467194
0.423298
0.333012
0.173950
-0.101069
-0.659696
-0.512826
-0.395674
-0.393878
-0.441169
-0.515574
-0.597480
-0.653476
-0.647027
-0.600296
-0.525114
-0.434931
-0.340953
-0.251187
-0.170656
-0.102026
-0.046355
-0.003819
0.025944
0.043958
0.051638
0.050701
0.043463
0.033915
0.020956
0.003682
-0.019121
-0.048505
-0.084230
-0.123765
-0.162331
-0.194147
-0.214097
-0.218698
-0.205845
-0.182779
-0.153403
-0.121404
-0.089701
-0.060304
-0.034400
-0.012518
0.005263
0.019142
0.029446
0.036532
0.040770
0.042595
0.042568
0.041354
0.039588
0.037712
0.036018
0.034338
0.032335
0.029575
0.025590
0.019929
0.012238
0.002379
-0.009446
-0.022609
-0.036066
-0.048480
-0.058426
-0.064640
-0.066151
-0.062707
-0.054740
-0.043210
-0.029388
-0.014621
-0.000124
0.013171
0.024677
0.034141
0.041588
0.047240
0.051452
0.054671
0.057388
0.060096
0.063236
0.067153
0.072074
0.078130
0.087133
0.421409
0.422463
0.425267
0.429369
0.433849
0.437028
0.436052
0.426366
0.401187
0.351097
0.263712
0.123240
-0.089541
-0.352812
-0.387628
-0.374316
-0.389380
-0.432870
-0.494000
-0.553035
-0.577225
-0.565455
-0.522507
-0.457311
-0.379839
-0.298741
-0.220422
-0.149018
-0.086771
-0.034524
0.007758
0.040447
0.063607
0.076896
0.080799
0.078862
0.069325
0.053063
0.030283
0.000599
-0.036141
-0.078617
-0.123311
-0.164855
-0.197319
-0.215953
-0.214695
-0.199112
-0.173773
-0.143014
-0.110518
-0.079022
-0.050302
-0.025312
-0.004391
0.012523
0.025728
0.035616
0.042585
0.047000
0.049216
0.049654
0.048823
0.047256
0.045412
0.043611
0.041727
0.039441
0.036316
0.031871
0.025649
0.017308
0.006746
-0.005781
-0.019584
-0.033561
-0.046322
-0.056398
-0.062490
-0.063523
-0.059543
-0.050984
-0.038831
-0.024399
-0.009084
0.005862
0.019486
0.031207
0.040800
0.048328
0.054046
0.058332
0.061636
0.064441
0.067227
0.070419
0.074346
0.079214
0.085126
0.093774
0.407671
0.407985
0.408685
0.409265
0.408775
0.405628
0.397367
0.380403
0.349842
0.299493
0.222238
0.111476
-0.033389
-0.189442
-0.271039
-0.312298
-0.348916
-0.391713
-0.437101
-0.471792
-0.483018
-0.470841
-0.436437
-0.385126
-0.323576
-0.258031
-0.193429
-0.133176
-0.079294
-0.032713
0.006358
0.038049
0.062439
0.079386
0.091743
0.096467
0.089797
0.073242
0.048120
0.014934
-0.025497
-0.070868
-0.116946
-0.158049
-0.188208
-0.202681
-0.197564
-0.180243
-0.154645
-0.124768
-0.093936
-0.064532
-0.038029
-0.015155
0.003897
0.019272
0.031304
0.040399
0.046960
0.051347
0.053869
0.054838
0.054613
0.053589
0.052189
0.050651
0.048907
0.046673
0.043516
0.038942
0.032489
0.023833
0.012909
0.000026
-0.014067
-0.028218
-0.041000
-0.050926
-0.056696
-0.057193
-0.052742
-0.043790
-0.031347
-0.016754
-0.001420
0.013408
0.026806
0.038242
0.047547
0.054831
0.060380
0.064583
0.067877
0.070721
0.073563
0.076801
0.080738
0.085557
0.091326
0.099620
0.393369
0.393079
0.392078
0.389886
0.385633
0.377961
0.364902
0.343797
0.311317
0.263708
0.197432
0.110652
0.006577
-0.101548
-0.183162
-0.241206
-0.287791
-0.329370
-0.365116
-0.388936
-0.396487
-0.387023
-0.361285
-0.322520
-0.275120
-0.223498
-0.171390
-0.121574
-0.075859
-0.035239
-0.000112
0.029476
0.053644
0.072913
0.087366
0.093740
0.090397
0.076987
0.053767
0.021534
-0.018013
-0.061775
-0.105087
-0.142239
-0.167678
-0.176014
-0.169139
-0.152139
-0.128474
-0.101553
-0.074159
-0.048254
-0.025024
-0.005028
0.011620
0.025080
0.035668
0.043760
0.049734
0.053929
0.056631
0.058088
0.058551
0.058278
0.057680
0.056749
0.055474
0.053608
0.050729
0.046341
0.039979
0.031335
0.020382
0.007484
-0.006560
-0.020553
-0.033046
-0.042550
-0.047795
-0.047710
-0.042815
-0.033616
-0.021166
-0.006828
0.008002
0.022133
0.034734
0.045377
0.053983
0.060724
0.065915
0.069932
0.073180
0.076070
0.079002
0.082330
0.086324
0.091140
0.096813
0.104805
0.379607
0.378849
0.376552
0.372299
0.365357
0.354634
0.338635
0.315476
0.282992
0.239033
0.182034
0.112016
0.032133
-0.050009
-0.121808
-0.180425
-0.228517
-0.268347
-0.299593
-0.319820
-0.327130
-0.321033
-0.302317
-0.273199
-0.236703
-0.196008
-0.153959
-0.112807
-0.074137
-0.038928
-0.007680
0.019432
0.042416
0.061631
0.075502
0.082512
0.081265
0.070943
0.051344
0.023107
-0.011908
-0.050368
-0.087593
-0.118171
-0.137102
-0.141290
-0.134761
-0.119992
-0.099879
-0.077174
-0.054123
-0.032318
-0.012734
0.004162
0.018269
0.029723
0.038798
0.045823
0.051137
0.055051
0.057828
0.059685
0.060809
0.061392
0.061714
0.061605
0.061054
0.059821
0.057490
0.053562
0.047573
0.039233
0.028548
0.015930
0.002228
-0.011324
-0.023261
-0.032105
-0.036617
-0.035884
-0.030525
-0.021157
-0.008914
0.004810
0.018654
0.031537
0.042786
0.052145
0.059676
0.065629
0.070330
0.074122
0.077348
0.080346
0.083448
0.086955
0.091097
0.095999
0.101669
0.109469
0.367234
0.366130
0.362887
0.357170
0.348397
0.335725
0.318056
0.294093
0.262468
0.222001
0.172117
0.113432
0.048427
-0.018266
-0.080436
-0.134850
-0.180928
-0.218724
-0.247707
-0.266772
-0.274813
-0.271679
-0.258196
-0.236049
-0.207476
-0.174871
-0.140459
-0.106080
-0.073109
-0.042466
-0.014693
0.009934
0.031295
0.049162
0.062299
0.069624
0.069993
0.062562
0.047036
0.023990
-0.004804
-0.036231
-0.066088
-0.089796
-0.103478
-0.106645
-0.101485
-0.089715
-0.073542
-0.055126
-0.036279
-0.018332
-0.002132
0.011891
0.023627
0.033186
0.040809
0.046795
0.051451
0.055061
0.057864
0.060047
0.061744
0.063247
0.064378
0.065141
0.065441
0.065006
0.063407
0.060138
0.054738
0.046925
0.036738
0.024627
0.011486
-0.001418
-0.012599
-0.020589
-0.024199
-0.022689
-0.016795
-0.007274
0.004624
0.017456
0.029910
0.041057
0.050460
0.058107
0.064252
0.069239
0.073391
0.076982
0.080258
0.083461
0.086843
0.090642
0.095047
0.100159
0.105971
0.113766
0.356882
0.355521
0.351602
0.344881
0.334912
0.321057
0.302521
0.278417
0.247894
0.210329
0.165618
0.114508
0.058893
0.001828
-0.052990
-0.102802
-0.146065
-0.181867
-0.209412
-0.227960
-0.236793
-0.235928
-0.226172
-0.208911
-0.185921
-0.159111
-0.130288
-0.100995
-0.072428
-0.045435
-0.020567
0.001834
0.021532
0.038060
0.050555
0.058158
0.059938
0.055149
0.043516
0.025553
0.002836
-0.021954
-0.045356
-0.063845
-0.074754
-0.078002
-0.074381
-0.065249
-0.052330
-0.037370
-0.021885
-0.007039
0.006401
0.018027
0.027728
0.035610
0.041912
0.046933
0.050975
0.054305
0.057137
0.059631
0.061914
0.064054
0.065932
0.067521
0.068670
0.069068
0.068268
0.065752
0.061053
0.053898
0.044343
0.032872
0.020418
0.008286
-0.002013
-0.009010
-0.011495
-0.009136
-0.002652
0.007024
0.018500
0.030269
0.041067
0.050142
0.057337
0.062957
0.067506
0.071437
0.075051
0.078513
0.081937
0.085447
0.089206
0.093398
0.098177
0.103639
0.109775
0.117873
0.349020
0.347438
0.343022
0.335625
0.324904
0.310369
0.291433
0.267479
0.237967
0.202585
0.161443
0.115273
0.065569
0.014545
-0.035202
-0.081348
-0.122130
-0.156263
-0.182773
-0.200984
-0.210399
-0.211116
-0.203892
-0.189931
-0.170733
-0.147910
-0.123002
-0.097345
-0.072002
-0.047752
-0.025134
-0.004516
0.013805
0.029313
0.041358
0.049229
0.052147
0.049463
0.040923
0.026967
0.008944
-0.010900
-0.029754
-0.044874
-0.054377
-0.057603
-0.054996
-0.047623
-0.036901
-0.024309
-0.011179
0.001442
0.012843
0.022639
0.030729
0.037231
0.042402
0.046570
0.050058
0.053143
0.056030
0.058835
0.061591
0.064252
0.066785
0.069100
0.071001
0.072154
0.072096
0.070301
0.066296
0.059808
0.050903
0.040089
0.028336
0.016996
0.007617
0.001678
0.000427
0.003572
0.010610
0.020416
0.031462
0.042172
0.051309
0.058271
0.063178
0.066675
0.069559
0.072429
0.075555
0.078968
0.082625
0.086500
0.090681
0.095306
0.100519
0.106428
0.113072
0.121950
0.344055
0.342154
0.337320
0.329471
0.318304
0.303410
0.284324
0.260587
0.231833
0.197909
0.159016
0.115840
0.069639
0.022190
-0.024419
-0.068136
-0.107184
-0.140147
-0.165958
-0.183916
-0.193675
-0.195384
-0.189743
-0.177841
-0.161021
-0.140718
-0.118312
-0.095010
-0.071789
-0.049384
-0.028318
-0.008964
0.008398
0.023250
0.035051
0.043173
0.046912
0.045660
0.039158
0.027780
0.012711
-0.004082
-0.020188
-0.033279
-0.041745
-0.044816
-0.042736
-0.036379
-0.026970
-0.015829
-0.004164
0.007053
0.017149
0.025756
0.032778
0.038334
0.042692
0.046200
0.049217
0.052061
0.054987
0.058022
0.061111
0.064241
0.067330
0.070241
0.072749
0.074504
0.075039
0.073825
0.070385
0.064441
0.056063
0.045781
0.034602
0.023929
0.015359
0.010439
0.009951
0.013696
0.021105
0.030958
0.041656
0.051577
0.059480
0.064827
0.067903
0.069609
0.071010
0.072884
0.075531
0.078888
0.082780
0.086976
0.091516
0.096512
0.102112
0.108462
0.115716
0.125978
0.342586
0.339765
0.334530
0.326416
0.315040
0.300007
0.280901
0.257335
0.229018
0.195858
0.158081
0.116340
0.071775
0.025977
-0.019168
-0.061727
-0.099938
-0.132335
-0.157824
-0.175733
-0.185691
-0.187898
-0.183032
-0.172126
-0.156443
-0.137335
-0.116102
-0.093896
-0.071656
-0.050101
-0.029762
-0.011041
0.005682
0.020155
0.031899
0.040257
0.044513
0.044036
0.038537
0.028346
0.014588
-0.000871
-0.015779
-0.028051
-0.036138
-0.039139
-0.037305
-0.031429
-0.022639
-0.012165
-0.001155
0.009459
0.019022
0.027169
0.033799
0.039020
0.043092
0.046360
0.049183
0.051872
0.054616
0.057607
0.060924
0.064395
0.067876
0.071197
0.074112
0.076263
0.077178
0.076320
0.073203
0.067537
0.059391
0.049312
0.038351
0.027968
0.019768
0.015090
0.014765
0.018687
0.026159
0.035943
0.046454
0.056092
0.063614
0.068470
0.070935
0.071936
0.072618
0.073863
0.076055
0.079148
0.082889
0.087193
0.091929
0.097139
0.102968
0.109606
0.117308
0.129258
