# vtk DataFile Version 3.0
Vector Field
ASCII
DATASET RECTILINEAR_GRID
DIMENSIONS 100 26 1
X_COORDINATES 100 double
0.050000 0.150000 0.250000 0.350000 0.450000 0.550000 0.650000 0.750000 0.850000 0.950000 1.050000 1.150000 1.250000 1.350000 1.450000 1.550000 1.650000 1.750000 1.850000 1.950000 2.050000 2.150000 2.250000 2.350000 2.450000 2.550000 2.650000 2.750000 2.850000 2.950000 3.050000 3.150000 3.250000 3.350000 3.450000 3.550000 3.650000 3.750000 3.850000 3.950000 4.050000 4.150000 4.250000 4.350000 4.450000 4.550000 4.650000 4.750000 4.850000 4.950000 5.050000 5.150000 5.250000 5.350000 5.450000 5.550000 5.650000 5.750000 5.850000 5.950000 6.050000 6.150000 6.250000 6.350000 6.450000 6.550000 6.650000 6.750000 6.850000 6.950000 7.050000 7.150000 7.250000 7.350000 7.450000 7.550000 7.650000 7.750000 7.850000 7.950000 8.050000 8.150000 8.250000 8.350000 8.450000 8.550000 8.650000 8.750000 8.850000 8.950000 9.050000 9.150000 9.250000 9.350000 9.450000 9.550000 9.650000 9.750000 9.850000 9.950000 
Y_COORDINATES 26 double
0.050000 0.150000 0.250000 0.350000 0.450000 0.550000 0.650000 0.750000 0.850000 0.950000 1.050000 1.150000 1.250000 1.350000 1.450000 1.550000 1.650000 1.750000 1.850000 1.950000 2.050000 2.150000 2.250000 2.350000 2.450000 2.550000 
Z_COORDINATES 1 double
0.0
POINT_DATA 2600
VECTORS Vektorfeld double
1.000902 -0.000902 0.0
1.004994 -0.003190 0.0
1.013836 -0.005652 0.0
1.027649 -0.008161 0.0
1.046422 -0.010612 0.0
1.069903 -0.012869 0.0
1.097525 -0.014753 0.0
1.128333 -0.016054 0.0
1.160958 -0.016571 0.0
1.193696 -0.016168 0.0
1.224714 -0.014850 0.0
1.252317 -0.012753 0.0
1.275152 -0.010082 0.0
1.292292 -0.007058 0.0
1.303232 -0.003883 0.0
1.307857 -0.000742 0.0
1.306393 0.002206 0.0
1.299353 0.004834 0.0
1.287491 0.007028 0.0
1.271773 0.008690 0.0
1.253338 0.009746 0.0
1.233450 0.010142 0.0
1.213455 0.009854 0.0
1.194718 0.008883 0.0
1.178573 0.007262 0.0
1.166258 0.005053 0.0
1.158862 0.002344 0.0
1.157241 -0.000723 0.0
1.161811 -0.003846 0.0
1.172331 -0.006674 0.0
1.187824 -0.008819 0.0
1.206550 -0.009907 0.0
1.226136 -0.009679 0.0
1.243905 -0.008090 0.0
1.257353 -0.005357 0.0
1.264614 -0.001904 0.0
1.264649 0.001869 0.0
1.257116 0.005664 0.0
1.242234 0.009218 0.0
1.220671 0.012345 0.0
1.193395 0.014931 0.0
1.161543 0.016922 0.0
1.126315 0.018306 0.0
1.088914 0.019095 0.0
1.050510 0.019309 0.0
1.012231 0.018970 0.0
0.975171 0.018090 0.0
0.940407 0.016674 0.0
0.909027 0.014707 0.0
0.882153 0.012167 0.0
0.860951 0.009034 0.0
0.846579 0.005338 0.0
0.839999 0.001241 0.0
0.841582 -0.002823 0.0
0.851012 -0.006607 0.0
0.867705 -0.010087 0.0
0.891062 -0.013269 0.0
0.920474 -0.016143 0.0
0.955270 -0.018652 0.0
0.994586 -0.020664 0.0
1.037203 -0.021953 0.0
1.081358 -0.022202 0.0
1.124620 -0.021060 0.0
1.163939 -0.018259 0.0
1.195968 -0.013771 0.0
1.217722 -0.007983 0.0
1.227397 -0.001692 0.0
1.224664 0.004425 0.0
1.210136 0.010103 0.0
1.184937 0.015096 0.0
1.150660 0.019181 0.0
1.109299 0.022179 0.0
1.063153 0.023967 0.0
1.014722 0.024465 0.0
0.966615 0.023642 0.0
0.921448 0.021526 0.0
0.881669 0.018253 0.0
0.849313 0.014103 0.0
0.825703 0.009507 0.0
0.811218 0.004978 0.0
0.805208 0.001031 0.0
0.806049 -0.001872 0.0
0.811666 -0.003745 0.0
0.820325 -0.004915 0.0
0.830925 -0.005685 0.0
0.842911 -0.006302 0.0
0.856166 -0.006952 0.0
0.870870 -0.007753 0.0
0.887374 -0.008751 0.0
0.906048 -0.009923 0.0
0.927143 -0.011172 0.0
0.950663 -0.012348 0.0
0.976274 -0.013263 0.0
1.003257 -0.013720 0.0
1.030513 -0.013536 0.0
1.056630 -0.012581 0.0
1.080040 -0.010828 0.0
1.099313 -0.008445 0.0
1.113568 -0.005810 0.0
1.124853 -0.005476 0.0
1.001453 -0.003257 0.0
1.006957 -0.010431 0.0
1.017631 -0.017927 0.0
1.033461 -0.025528 0.0
1.054417 -0.032974 0.0
1.080304 -0.039875 0.0
1.110621 -0.045687 0.0
1.144439 -0.049746 0.0
1.180326 -0.051391 0.0
1.216395 -0.050155 0.0
1.250572 -0.046059 0.0
1.280995 -0.039570 0.0
1.306262 -0.031366 0.0
1.325484 -0.022135 0.0
1.338225 -0.012487 0.0
1.344413 -0.002951 0.0
1.344277 0.006015 0.0
1.338334 0.014008 0.0
1.327371 0.020678 0.0
1.312396 0.025732 0.0
1.294594 0.028941 0.0
1.275282 0.030147 0.0
1.255854 0.029273 0.0
1.237729 0.026325 0.0
1.222293 0.021401 0.0
1.210827 0.014694 0.0
1.204411 0.006515 0.0
1.203806 -0.002669 0.0
1.209459 -0.012122 0.0
1.221399 -0.020858 0.0
1.238940 -0.027670 0.0
1.260494 -0.031336 0.0
1.283624 -0.030967 0.0
1.305404 -0.026351 0.0
1.322959 -0.018099 0.0
1.333978 -0.007442 0.0
1.337055 0.004296 0.0
1.331803 0.016022 0.0
1.318628 0.026917 0.0
1.298409 0.036428 0.0
1.272295 0.044238 0.0
1.241549 0.050213 0.0
1.207454 0.054338 0.0
1.171257 0.056661 0.0
1.134148 0.057256 0.0
1.097257 0.056193 0.0
1.061664 0.053520 0.0
1.028406 0.049266 0.0
0.998454 0.043446 0.0
0.972663 0.036092 0.0
0.951667 0.027306 0.0
0.935785 0.017321 0.0
0.925073 0.006550 0.0
0.919726 -0.004368 0.0
0.920212 -0.014978 0.0
0.926911 -0.025108 0.0
0.939943 -0.034636 0.0
0.959211 -0.043457 0.0
0.984497 -0.051420 0.0
1.015482 -0.058198 0.0
1.051624 -0.063178 0.0
1.091944 -0.065452 0.0
1.134834 -0.063963 0.0
1.177946 -0.057786 0.0
1.218201 -0.046528 0.0
1.251958 -0.030737 0.0
1.275454 -0.012109 0.0
1.286051 0.006979 0.0
1.283412 0.024716 0.0
1.268818 0.040276 0.0
1.244098 0.052999 0.0
1.211432 0.062388 0.0
1.173221 0.068115 0.0
1.131955 0.070014 0.0
1.090084 0.068071 0.0
1.049867 0.062480 0.0
1.013201 0.053743 0.0
0.981418 0.042752 0.0
0.955131 0.030754 0.0
0.934233 0.019114 0.0
0.918140 0.008998 0.0
0.906315 0.001145 0.0
0.898349 -0.004412 0.0
0.893587 -0.008145 0.0
0.891287 -0.010755 0.0
0.890994 -0.012926 0.0
0.892628 -0.015217 0.0
0.896449 -0.018014 0.0
0.902946 -0.021491 0.0
0.912671 -0.025583 0.0
0.926061 -0.029996 0.0
0.943277 -0.034260 0.0
0.964128 -0.037812 0.0
0.988055 -0.040080 0.0
1.014178 -0.040556 0.0
1.041375 -0.038876 0.0
1.068364 -0.034932 0.0
1.093798 -0.029048 0.0
1.116398 -0.022061 0.0
1.134217 -0.018328 0.0
1.001344 -0.006054 0.0
1.006687 -0.018480 0.0
1.017375 -0.031240 0.0
1.033523 -0.044193 0.0
1.055264 -0.057007 0.0
1.082606 -0.069070 0.0
1.115238 -0.079441 0.0
1.152304 -0.086876 0.0
1.192217 -0.090061 0.0
1.232576 -0.087912 0.0
1.270606 -0.080510 0.0
1.303971 -0.068906 0.0
1.331132 -0.054458 0.0
1.351277 -0.038409 0.0
1.364106 -0.021783 0.0
1.369696 -0.005434 0.0
1.368436 0.009893 0.0
1.360970 0.023539 0.0
1.348158 0.034922 0.0
1.331077 0.043546 0.0
1.310982 0.049025 0.0
1.289261 0.051096 0.0
1.267380 0.049632 0.0
1.246829 0.044641 0.0
1.229070 0.036280 0.0
1.215493 0.024858 0.0
1.207393 0.010867 0.0
1.205944 -0.004967 0.0
1.212036 -0.021569 0.0
1.225979 -0.037294 0.0
1.247145 -0.049941 0.0
1.273674 -0.057148 0.0
1.302493 -0.057103 0.0
1.329759 -0.049260 0.0
1.351704 -0.034691 0.0
1.365589 -0.015754 0.0
1.370257 0.004862 0.0
1.365808 0.025156 0.0
1.353010 0.043757 0.0
1.333016 0.059801 0.0
1.307156 0.072838 0.0
1.276792 0.082722 0.0
1.243224 0.089491 0.0
1.207652 0.093277 0.0
1.171164 0.094238 0.0
1.134746 0.092520 0.0
1.099286 0.088245 0.0
1.065570 0.081516 0.0
1.034273 0.072446 0.0
1.005948 0.061209 0.0
0.981053 0.048080 0.0
0.960035 0.033448 0.0
0.943395 0.017777 0.0
0.931636 0.001511 0.0
0.925121 -0.014828 0.0
0.923950 -0.030786 0.0
0.928040 -0.046081 0.0
0.937394 -0.060633 0.0
0.952271 -0.074407 0.0
0.973133 -0.087058 0.0
1.000334 -0.097660 0.0
1.033754 -0.104710 0.0
1.072547 -0.106388 0.0
1.115040 -0.100965 0.0
1.158736 -0.087299 0.0
1.200364 -0.065351 0.0
1.236032 -0.036660 0.0
1.261625 -0.004661 0.0
1.274479 0.026141 0.0
1.274598 0.053326 0.0
1.263506 0.075762 0.0
1.243152 0.092644 0.0
1.215723 0.103500 0.0
1.183456 0.108162 0.0
1.148485 0.106766 0.0
1.112680 0.099807 0.0
1.077534 0.088227 0.0
1.044132 0.073453 0.0
1.013209 0.057263 0.0
0.985261 0.041452 0.0
0.960591 0.027425 0.0
0.939231 0.015903 0.0
0.920959 0.007068 0.0
0.905481 0.000615 0.0
0.892506 -0.004240 0.0
0.881864 -0.008507 0.0
0.873744 -0.013149 0.0
0.868695 -0.018853 0.0
0.867445 -0.025898 0.0
0.870660 -0.034117 0.0
0.878734 -0.042925 0.0
0.891660 -0.051474 0.0
0.909039 -0.058828 0.0
0.930147 -0.064099 0.0
0.954033 -0.066546 0.0
0.979604 -0.065653 0.0
1.005683 -0.061223 0.0
1.031029 -0.053536 0.0
1.054333 -0.043477 0.0
1.073229 -0.033627 0.0
1.001298 -0.008697 0.0
1.006541 -0.026423 0.0
1.017206 -0.044651 0.0
1.033636 -0.063359 0.0
1.056272 -0.082219 0.0
1.085520 -0.100447 0.0
1.121483 -0.116661 0.0
1.163558 -0.128797 0.0
1.210065 -0.134559 0.0
1.257578 -0.131286 0.0
1.301781 -0.119369 0.0
1.339515 -0.101146 0.0
1.369233 -0.079097 0.0
1.390440 -0.055122 0.0
1.403145 -0.030604 0.0
1.407633 -0.006691 0.0
1.404439 0.015605 0.0
1.394309 0.035424 0.0
1.378211 0.051946 0.0
1.357354 0.064460 0.0
1.333147 0.072412 0.0
1.307149 0.075429 0.0
1.280999 0.073330 0.0
1.256361 0.066130 0.0
1.234875 0.054036 0.0
1.218109 0.037445 0.0
1.207568 0.016922 0.0
1.204717 -0.006721 0.0
1.210845 -0.032035 0.0
1.226662 -0.056589 0.0
1.251767 -0.076916 0.0
1.284224 -0.089159 0.0
1.320506 -0.090194 0.0
1.355850 -0.078780 0.0
1.385105 -0.056370 0.0
1.404121 -0.026977 0.0
1.411111 0.004426 0.0
1.406601 0.034551 0.0
1.392192 0.061569 0.0
1.369758 0.084416 0.0
1.341192 0.102649 0.0
1.308219 0.116249 0.0
1.272325 0.125427 0.0
1.234751 0.130488 0.0
1.196521 0.131744 0.0
1.158482 0.129471 0.0
1.121335 0.123902 0.0
1.085665 0.115245 0.0
1.051965 0.103714 0.0
1.020682 0.089550 0.0
0.992270 0.073046 0.0
0.967201 0.054569 0.0
0.945879 0.034619 0.0
0.928450 0.013857 0.0
0.914730 -0.006940 0.0
0.904431 -0.027204 0.0
0.897543 -0.046867 0.0
0.894698 -0.066356 0.0
0.897232 -0.086096 0.0
0.906742 -0.105742 0.0
0.924388 -0.123823 0.0
0.950419 -0.137998 0.0
0.984114 -0.145589 0.0
1.023972 -0.144116 0.0
1.067898 -0.131770 0.0
1.113273 -0.107884 0.0
1.156916 -0.073438 0.0
1.195000 -0.031559 0.0
1.223134 0.012051 0.0
1.238835 0.051596 0.0
1.242545 0.084875 0.0
1.235745 0.110684 0.0
1.220258 0.128376 0.0
1.198015 0.137794 0.0
1.170875 0.139245 0.0
1.140496 0.133514 0.0
1.108277 0.121886 0.0
1.075374 0.106099 0.0
1.042762 0.088152 0.0
1.011258 0.070014 0.0
0.981481 0.053311 0.0
0.953757 0.039101 0.0
0.928136 0.027763 0.0
0.904557 0.018976 0.0
0.883116 0.011816 0.0
0.864228 0.004966 0.0
0.848613 -0.002887 0.0
0.837184 -0.012637 0.0
0.830815 -0.024495 0.0
0.830057 -0.037977 0.0
0.834989 -0.052069 0.0
0.845250 -0.065517 0.0
0.860161 -0.077075 0.0
0.878853 -0.085651 0.0
0.900350 -0.090378 0.0
0.923619 -0.090662 0.0
0.947574 -0.086250 0.0
0.971055 -0.077336 0.0
0.992775 -0.064700 0.0
1.010717 -0.049242 0.0
1.001233 -0.011228 0.0
1.006254 -0.034155 0.0
1.016624 -0.057955 0.0
1.032969 -0.082829 0.0
1.056187 -0.108603 0.0
1.087338 -0.134461 0.0
1.127341 -0.158613 0.0
1.176266 -0.177845 0.0
1.232883 -0.188635 0.0
1.291590 -0.183432 0.0
1.344463 -0.164299 0.0
1.387295 -0.136783 0.0
1.419312 -0.105196 0.0
1.441055 -0.071974 0.0
1.453111 -0.038513 0.0
1.455957 -0.006116 0.0
1.450156 0.024024 0.0
1.436461 0.050830 0.0
1.415918 0.073181 0.0
1.389901 0.090101 0.0
1.360033 0.100846 0.0
1.328100 0.104926 0.0
1.295976 0.102108 0.0
1.265551 0.092414 0.0
1.238672 0.076118 0.0
1.217067 0.053733 0.0
1.202304 0.025938 0.0
1.195868 -0.006451 0.0
1.199258 -0.041822 0.0
1.213577 -0.076938 0.0
1.238816 -0.106911 0.0
1.273508 -0.126313 0.0
1.314742 -0.130556 0.0
1.358092 -0.117113 0.0
1.397611 -0.086811 0.0
1.426788 -0.044729 0.0
1.441076 0.000900 0.0
1.440145 0.043519 0.0
1.426475 0.080680 0.0
1.402948 0.111266 0.0
1.372254 0.135059 0.0
1.336680 0.152385 0.0
1.298056 0.163808 0.0
1.257798 0.169939 0.0
1.216984 0.171337 0.0
1.176431 0.168470 0.0
1.136760 0.161719 0.0
1.098459 0.151398 0.0
1.061938 0.137781 0.0
1.027580 0.121123 0.0
0.995752 0.101712 0.0
0.966721 0.080002 0.0
0.940454 0.056773 0.0
0.916478 0.033108 0.0
0.894035 0.009972 0.0
0.872702 -0.012483 0.0
0.853269 -0.035267 0.0
0.837988 -0.059829 0.0
0.829808 -0.086976 0.0
0.831121 -0.115685 0.0
0.842830 -0.143236 0.0
0.864395 -0.166181 0.0
0.894447 -0.181153 0.0
0.931311 -0.185274 0.0
0.973203 -0.176430 0.0
1.018198 -0.153594 0.0
1.064082 -0.117255 0.0
1.108142 -0.069887 0.0
1.146798 -0.016411 0.0
1.175906 0.035250 0.0
1.193490 0.079926 0.0
1.200139 0.115785 0.0
1.197036 0.141866 0.0
1.185647 0.157935 0.0
1.167506 0.164385 0.0
1.144077 0.162181 0.0
1.116700 0.152815 0.0
1.086581 0.138191 0.0
1.054804 0.120450 0.0
1.022296 0.101727 0.0
0.989776 0.083896 0.0
0.957733 0.068283 0.0
0.926532 0.055403 0.0
0.896636 0.044811 0.0
0.868818 0.035241 0.0
0.844197 0.025052 0.0
0.824019 0.012820 0.0
0.809284 -0.002181 0.0
0.800527 -0.019826 0.0
0.797838 -0.039200 0.0
0.800914 -0.058855 0.0
0.809146 -0.077225 0.0
0.821756 -0.092888 0.0
0.837888 -0.104662 0.0
0.856652 -0.111628 0.0
0.877127 -0.113155 0.0
0.898347 -0.108932 0.0
0.919265 -0.099053 0.0
0.938701 -0.084140 0.0
0.955029 -0.064073 0.0
1.001098 -0.013558 0.0
1.005607 -0.041356 0.0
1.015084 -0.070602 0.0
1.030458 -0.101901 0.0
1.053200 -0.135491 0.0
1.085328 -0.170852 0.0
1.129207 -0.206103 0.0
1.186482 -0.236555 0.0
1.258454 -0.258514 0.0
1.333972 -0.247779 0.0
1.396363 -0.215215 0.0
1.441824 -0.174159 0.0
1.473094 -0.131107 0.0
1.493271 -0.087982 0.0
1.503781 -0.045071 0.0
1.504779 -0.003402 0.0
1.496260 0.035629 0.0
1.478655 0.070525 0.0
1.453003 0.099680 0.0
1.420860 0.121762 0.0
1.384106 0.135807 0.0
1.344797 0.141206 0.0
1.305066 0.137683 0.0
1.267055 0.125276 0.0
1.232830 0.104361 0.0
1.204246 0.075678 0.0
1.182685 0.040318 0.0
1.168889 -0.000600 0.0
1.163681 -0.045856 0.0
1.168282 -0.091824 0.0
1.183425 -0.132407 0.0
1.209196 -0.161280 0.0
1.245239 -0.172865 0.0
1.289892 -0.162806 0.0
1.338729 -0.129474 0.0
1.383837 -0.076350 0.0
1.415501 -0.013433 0.0
1.428422 0.045862 0.0
1.424263 0.096167 0.0
1.407071 0.136499 0.0
1.380433 0.167157 0.0
1.347249 0.189045 0.0
1.309772 0.203249 0.0
1.269718 0.210810 0.0
1.228377 0.212621 0.0
1.186713 0.209404 0.0
1.145448 0.201722 0.0
1.105132 0.190013 0.0
1.066206 0.174614 0.0
1.029034 0.155821 0.0
0.993841 0.134035 0.0
0.960518 0.110034 0.0
0.928392 0.085134 0.0
0.896314 0.060802 0.0
0.863433 0.037601 0.0
0.830416 0.014237 0.0
0.800058 -0.012196 0.0
0.776679 -0.044241 0.0
0.764084 -0.081790 0.0
0.763611 -0.121710 0.0
0.774278 -0.159586 0.0
0.794154 -0.191272 0.0
0.821400 -0.213360 0.0
0.854579 -0.223108 0.0
0.892525 -0.218433 0.0
0.934092 -0.198153 0.0
0.977929 -0.162416 0.0
1.022289 -0.113147 0.0
1.064849 -0.054366 0.0
1.101916 0.007031 0.0
1.129941 0.062535 0.0
1.147775 0.108693 0.0
1.155790 0.144046 0.0
1.154818 0.168116 0.0
1.145933 0.181230 0.0
1.130302 0.184396 0.0
1.109098 0.179182 0.0
1.083459 0.167583 0.0
1.054443 0.151852 0.0
1.022983 0.134292 0.0
0.989863 0.116971 0.0
0.955767 0.101346 0.0
0.921446 0.087861 0.0
0.887916 0.075779 0.0
0.856542 0.063464 0.0
0.828896 0.049095 0.0
0.806409 0.031442 0.0
0.790021 0.010321 0.0
0.779977 -0.013527 0.0
0.775956 -0.038789 0.0
0.777379 -0.063764 0.0
0.783559 -0.086728 0.0
0.793750 -0.106186 0.0
0.807177 -0.120923 0.0
0.823050 -0.130003 0.0
0.840555 -0.132761 0.0
0.858845 -0.128836 0.0
0.876995 -0.118217 0.0
0.893975 -0.101391 0.0
0.908465 -0.077640 0.0
1.000851 -0.015507 0.0
1.004387 -0.047452 0.0
1.011989 -0.081585 0.0
1.024820 -0.119124 0.0
1.044902 -0.161092 0.0
1.075425 -0.207903 0.0
1.121009 -0.258515 0.0
1.186611 -0.307020 0.0
1.281847 -0.355258 0.0
1.379845 -0.324550 0.0
1.444620 -0.265610 0.0
1.481611 -0.206217 0.0
1.503258 -0.151964 0.0
1.517129 -0.101173 0.0
1.525244 -0.050506 0.0
1.525711 0.000569 0.0
1.516224 0.049664 0.0
1.496210 0.094109 0.0
1.466553 0.131406 0.0
1.428981 0.159751 0.0
1.385606 0.177947 0.0
1.338702 0.185280 0.0
1.290598 0.181443 0.0
1.243612 0.166513 0.0
1.199976 0.140986 0.0
1.161678 0.105935 0.0
1.129938 0.063363 0.0
1.104027 0.016062 0.0
1.081764 -0.035046 0.0
1.063456 -0.088927 0.0
1.052488 -0.139480 0.0
1.053506 -0.180996 0.0
1.071202 -0.206888 0.0
1.107481 -0.209715 0.0
1.159864 -0.183786 0.0
1.221261 -0.128542 0.0
1.280037 -0.051681 0.0
1.322384 0.028842 0.0
1.343151 0.096580 0.0
1.346394 0.150035 0.0
1.336340 0.190312 0.0
1.316338 0.219077 0.0
1.289010 0.238023 0.0
1.256438 0.248663 0.0
1.220287 0.252261 0.0
1.181887 0.249827 0.0
1.142295 0.242155 0.0
1.102343 0.229848 0.0
1.062674 0.213373 0.0
1.023719 0.193189 0.0
0.985520 0.170059 0.0
0.947421 0.145432 0.0
0.908001 0.121282 0.0
0.865921 0.098811 0.0
0.821753 0.076642 0.0
0.779313 0.050654 0.0
0.744516 0.016542 0.0
0.722018 -0.027101 0.0
0.713027 -0.077344 0.0
0.715848 -0.128505 0.0
0.727719 -0.175329 0.0
0.746312 -0.213998 0.0
0.770162 -0.241732 0.0
0.798501 -0.256255 0.0
0.830919 -0.255650 0.0
0.867028 -0.238613 0.0
0.906199 -0.204963 0.0
0.947391 -0.156152 0.0
0.989031 -0.095561 0.0
1.028800 -0.028610 0.0
1.062989 0.035962 0.0
1.088767 0.091655 0.0
1.105565 0.136271 0.0
1.113514 0.168913 0.0
1.113152 0.189681 0.0
1.105251 0.199478 0.0
1.090712 0.199842 0.0
1.070486 0.192787 0.0
1.045514 0.180636 0.0
1.016683 0.165798 0.0
0.984839 0.150428 0.0
0.950888 0.135936 0.0
0.915954 0.122528 0.0
0.881482 0.109114 0.0
0.849183 0.093801 0.0
0.820761 0.074826 0.0
0.797563 0.051397 0.0
0.780344 0.023974 0.0
0.769225 -0.006018 0.0
0.763819 -0.036871 0.0
0.763505 -0.066790 0.0
0.767617 -0.093994 0.0
0.775458 -0.116953 0.0
0.786307 -0.134433 0.0
0.799433 -0.145490 0.0
0.814098 -0.149445 0.0
0.829552 -0.145896 0.0
0.844997 -0.134753 0.0
0.859561 -0.116398 0.0
0.872166 -0.089729 0.0
1.000464 -0.016822 0.0
1.002429 -0.051637 0.0
1.006843 -0.089416 0.0
1.014857 -0.132137 0.0
1.028711 -0.182013 0.0
1.052530 -0.241324 0.0
1.093657 -0.311806 0.0
1.163100 -0.388774 0.0
1.290745 -0.496384 0.0
1.408964 -0.399639 0.0
1.448252 -0.294584 0.0
1.451255 -0.217238 0.0
1.447059 -0.158394 0.0
1.446860 -0.108415 0.0
1.452623 -0.057142 0.0
1.457611 0.001750 0.0
1.453271 0.062310 0.0
1.436557 0.118190 0.0
1.408193 0.165346 0.0
1.370067 0.201509 0.0
1.324291 0.225340 0.0
1.273025 0.236058 0.0
1.218464 0.233332 0.0
1.162778 0.217296 0.0
1.108012 0.188604 0.0
1.056006 0.148620 0.0
1.008006 0.100417 0.0
0.962884 0.050040 0.0
0.914581 0.001543 0.0
0.859800 -0.052427 0.0
0.810686 -0.115897 0.0
0.785315 -0.180225 0.0
0.791374 -0.231414 0.0
0.826522 -0.256616 0.0
0.884440 -0.247186 0.0
0.958077 -0.200176 0.0
1.039385 -0.120131 0.0
1.116242 -0.021912 0.0
1.174557 0.068252 0.0
1.210533 0.139144 0.0
1.228785 0.193004 0.0
1.232779 0.232393 0.0
1.225250 0.259563 0.0
1.208517 0.276427 0.0
1.184599 0.284566 0.0
1.155248 0.285273 0.0
1.121956 0.279593 0.0
1.085957 0.268363 0.0
1.048184 0.252301 0.0
1.009116 0.232284 0.0
0.968454 0.209825 0.0
0.924959 0.187259 0.0
0.877252 0.166582 0.0
0.825858 0.146984 0.0
0.774980 0.123516 0.0
0.731513 0.089688 0.0
0.701343 0.042473 0.0
0.686211 -0.015402 0.0
0.683817 -0.077658 0.0
0.690446 -0.137643 0.0
0.703089 -0.190704 0.0
0.719870 -0.233997 0.0
0.739859 -0.265573 0.0
0.762818 -0.283711 0.0
0.788923 -0.286717 0.0
0.818443 -0.273175 0.0
0.851409 -0.242537 0.0
0.887388 -0.195749 0.0
0.925396 -0.135612 0.0
0.963866 -0.066799 0.0
1.000033 0.003793 0.0
1.030556 0.067523 0.0
1.053516 0.120646 0.0
1.068399 0.161705 0.0
1.075207 0.190442 0.0
1.074285 0.207539 0.0
1.066201 0.214404 0.0
1.051653 0.212998 0.0
1.031408 0.205642 0.0
1.006274 0.194757 0.0
0.977149 0.182439 0.0
0.945123 0.169901 0.0
0.911588 0.157032 0.0
0.878235 0.142435 0.0
0.846876 0.124138 0.0
0.819144 0.100645 0.0
0.796217 0.071703 0.0
0.778713 0.038390 0.0
0.766760 0.002638 0.0
0.760088 -0.033450 0.0
0.758190 -0.067999 0.0
0.760473 -0.099180 0.0
0.766280 -0.125414 0.0
0.774907 -0.145448 0.0
0.785642 -0.158336 0.0
0.797789 -0.163411 0.0
0.810673 -0.160267 0.0
0.823618 -0.148772 0.0
0.835911 -0.129236 0.0
0.846670 -0.100256 0.0
0.999936 -0.017222 0.0
0.999730 -0.052996 0.0
0.999571 -0.092312 0.0
1.000157 -0.137841 0.0
1.003123 -0.193128 0.0
1.012212 -0.263117 0.0
1.036004 -0.354933 0.0
1.093093 -0.472179 0.0
1.249839 -0.697370 0.0
1.357305 -0.424338 0.0
1.310233 -0.262102 0.0
1.243496 -0.185986 0.0
1.196245 -0.138197 0.0
1.172427 -0.104594 0.0
1.175354 -0.069653 0.0
1.196304 -0.011678 0.0
1.213772 0.062611 0.0
1.216174 0.132200 0.0
1.204462 0.191412 0.0
1.180126 0.237904 0.0
1.144520 0.270327 0.0
1.099054 0.287803 0.0
1.045247 0.289954 0.0
0.984320 0.277286 0.0
0.915768 0.251932 0.0
0.835436 0.217631 0.0
0.737751 0.177091 0.0
0.627214 0.129024 0.0
0.527547 0.070529 0.0
0.465326 -0.004412 0.0
0.447700 -0.097172 0.0
0.464443 -0.190322 0.0
0.502952 -0.265886 0.0
0.556601 -0.310941 0.0
0.623169 -0.317346 0.0
0.701417 -0.281902 0.0
0.789254 -0.207551 0.0
0.882431 -0.104526 0.0
0.969184 0.005797 0.0
1.036888 0.097921 0.0
1.084003 0.168860 0.0
1.114025 0.222520 0.0
1.129358 0.261633 0.0
1.132108 0.288341 0.0
1.124274 0.304405 0.0
1.107742 0.311317 0.0
1.084231 0.310352 0.0
1.055204 0.302629 0.0
1.021721 0.289290 0.0
0.984143 0.271940 0.0
0.941920 0.253055 0.0
0.894113 0.235331 0.0
0.841180 0.219150 0.0
0.786968 0.200023 0.0
0.738405 0.169917 0.0
0.702103 0.123057 0.0
0.680799 0.060577 0.0
0.673036 -0.010609 0.0
0.675288 -0.082307 0.0
0.684050 -0.148384 0.0
0.696755 -0.205310 0.0
0.711779 -0.251197 0.0
0.728303 -0.284885 0.0
0.746233 -0.305287 0.0
0.766070 -0.311084 0.0
0.788608 -0.300867 0.0
0.814529 -0.273731 0.0
0.844036 -0.230042 0.0
0.876688 -0.171978 0.0
0.911378 -0.103592 0.0
0.946299 -0.030502 0.0
0.978391 0.039203 0.0
1.004876 0.099521 0.0
1.024548 0.148275 0.0
1.036876 0.184736 0.0
1.041777 0.209266 0.0
1.039469 0.223070 0.0
1.030371 0.227978 0.0
1.015052 0.226227 0.0
0.994222 0.220136 0.0
0.968796 0.211612 0.0
0.939976 0.201575 0.0
0.909287 0.189582 0.0
0.878481 0.174044 0.0
0.849294 0.153073 0.0
0.823189 0.125547 0.0
0.801184 0.091733 0.0
0.783855 0.053193 0.0
0.771419 0.012225 0.0
0.763797 -0.028742 0.0
0.760661 -0.067673 0.0
0.761508 -0.102637 0.0
0.765717 -0.131972 0.0
0.772580 -0.154382 0.0
0.781374 -0.168932 0.0
0.791413 -0.175000 0.0
0.802074 -0.172223 0.0
0.812788 -0.160475 0.0
0.822995 -0.140034 0.0
0.831987 -0.109209 0.0
0.999322 -0.016480 0.0
0.996567 -0.050778 0.0
0.990899 -0.088704 0.0
0.982056 -0.133192 0.0
0.969872 -0.188559 0.0
0.954961 -0.261865 0.0
0.941013 -0.366029 0.0
0.943344 -0.520503 0.0
1.048398 -0.910846 0.0
1.046583 -0.207541 0.0
0.848281 -0.112143 0.0
0.700025 -0.108543 0.0
0.620432 -0.088796 0.0
0.579749 -0.089495 0.0
0.589133 -0.097063 0.0
0.646353 -0.062437 0.0
0.718647 0.023609 0.0
0.774798 0.112648 0.0
0.808741 0.188733 0.0
0.822256 0.251404 0.0
0.815264 0.299425 0.0
0.787509 0.331926 0.0
0.738199 0.348948 0.0
0.665495 0.351923 0.0
0.568108 0.343235 0.0
0.451517 0.323251 0.0
0.334986 0.285687 0.0
0.247373 0.218579 0.0
0.207040 0.120976 0.0
0.211160 0.003242 0.0
0.242311 -0.118351 0.0
0.283959 -0.227534 0.0
0.330364 -0.313588 0.0
0.382061 -0.368585 0.0
0.441703 -0.385912 0.0
0.511690 -0.361570 0.0
0.592630 -0.296659 0.0
0.682862 -0.198826 0.0
0.778029 -0.081823 0.0
0.865534 0.030332 0.0
0.934668 0.120199 0.0
0.985696 0.190130 0.0
1.020773 0.243614 0.0
1.041501 0.282881 0.0
1.049499 0.309701 0.0
1.046423 0.325628 0.0
1.033874 0.332101 0.0
1.013232 0.330548 0.0
0.985400 0.322688 0.0
0.950546 0.310974 0.0
0.908337 0.298454 0.0
0.859220 0.286856 0.0
0.806360 0.273417 0.0
0.756172 0.250156 0.0
0.715832 0.208687 0.0
0.689482 0.146940 0.0
0.676864 0.070615 0.0
0.675099 -0.011119 0.0
0.680888 -0.089838 0.0
0.691429 -0.160156 0.0
0.704540 -0.219355 0.0
0.718626 -0.266263 0.0
0.732730 -0.300447 0.0
0.746641 -0.321568 0.0
0.760923 -0.328922 0.0
0.776718 -0.321361 0.0
0.795309 -0.297748 0.0
0.817604 -0.257828 0.0
0.843773 -0.203014 0.0
0.873183 -0.136655 0.0
0.904517 -0.063694 0.0
0.935439 0.009381 0.0
0.963086 0.075211 0.0
0.985471 0.130527 0.0
1.001601 0.174026 0.0
1.010991 0.205684 0.0
1.013521 0.226431 0.0
1.009334 0.237901 0.0
0.998799 0.242160 0.0
0.982515 0.241317 0.0
0.961375 0.236997 0.0
0.936606 0.229778 0.0
0.909737 0.218937 0.0
0.882429 0.202805 0.0
0.856237 0.179691 0.0
0.832414 0.148858 0.0
0.811854 0.110987 0.0
0.795145 0.067975 0.0
0.782651 0.022373 0.0
0.774501 -0.023118 0.0
0.770542 -0.066203 0.0
0.770375 -0.104787 0.0
0.773414 -0.137069 0.0
0.778950 -0.161684 0.0
0.786237 -0.177710 0.0
0.794576 -0.184598 0.0
0.803369 -0.182079 0.0
0.812127 -0.170091 0.0
0.820434 -0.148932 0.0
0.827739 -0.116607 0.0
0.998731 -0.014533 0.0
0.993515 -0.044754 0.0
0.982467 -0.078010 0.0
0.964166 -0.116742 0.0
0.935960 -0.164620 0.0
0.892971 -0.227904 0.0
0.825625 -0.318695 0.0
0.716246 -0.460789 0.0
0.324116 -0.792456 0.0
-0.474804 0.288717 0.0
-0.474804 0.000000 0.0
-0.042474 -0.030010 0.0
-0.072999 -0.069674 0.0
-0.019322 -0.121611 0.0
0.071421 -0.165074 0.0
0.164957 -0.145183 0.0
0.257727 -0.058709 0.0
0.341244 0.055298 0.0
0.400062 0.153321 0.0
0.434846 0.238517 0.0
0.443886 0.310265 0.0
0.425144 0.367584 0.0
0.377657 0.410087 0.0
0.304000 0.437145 0.0
0.214312 0.445088 0.0
0.128170 0.424132 0.0
0.069817 0.359690 0.0
0.055959 0.246046 0.0
0.080119 0.109682 0.0
0.123229 -0.032695 0.0
0.171453 -0.161789 0.0
0.217375 -0.271665 0.0
0.259611 -0.358097 0.0
0.300368 -0.416529 0.0
0.344471 -0.441714 0.0
0.397436 -0.428720 0.0
0.462895 -0.375909 0.0
0.540975 -0.287888 0.0
0.628582 -0.175535 0.0
0.719483 -0.054362 0.0
0.801342 0.053900 0.0
0.866283 0.140459 0.0
0.915415 0.209076 0.0
0.949949 0.262156 0.0
0.970996 0.301381 0.0
0.979762 0.328258 0.0
0.977461 0.344321 0.0
0.965106 0.351325 0.0
0.943257 0.351591 0.0
0.912042 0.348140 0.0
0.871930 0.343610 0.0
0.825336 0.337411 0.0
0.777719 0.323340 0.0
0.736284 0.291856 0.0
0.706553 0.237059 0.0
0.689974 0.161496 0.0
0.684706 0.073945 0.0
0.687899 -0.015877 0.0
0.696905 -0.099876 0.0
0.709427 -0.173180 0.0
0.723498 -0.233512 0.0
0.737490 -0.280184 0.0
0.750260 -0.313400 0.0
0.761358 -0.333624 0.0
0.771187 -0.340977 0.0
0.780976 -0.334891 0.0
0.792446 -0.314280 0.0
0.807203 -0.278348 0.0
0.826158 -0.227618 0.0
0.849251 -0.164554 0.0
0.875530 -0.093408 0.0
0.903316 -0.019612 0.0
0.930034 0.049841 0.0
0.953250 0.110296 0.0
0.971552 0.159826 0.0
0.984090 0.197956 0.0
0.990433 0.225287 0.0
0.990468 0.243195 0.0
0.984375 0.253494 0.0
0.972636 0.258005 0.0
0.956080 0.258005 0.0
0.935882 0.253736 0.0
0.913464 0.244265 0.0
0.890300 0.227949 0.0
0.867703 0.203338 0.0
0.846711 0.170026 0.0
0.828115 0.128975 0.0
0.812539 0.082271 0.0
0.800474 0.032636 0.0
0.792232 -0.016988 0.0
0.787839 -0.063981 0.0
0.787005 -0.106007 0.0
0.789199 -0.141081 0.0
0.793728 -0.167737 0.0
0.799835 -0.185051 0.0
0.806798 -0.192560 0.0
0.814021 -0.190134 0.0
0.821065 -0.177839 0.0
0.827629 -0.156056 0.0
0.833314 -0.122473 0.0
0.998291 -0.011556 0.0
0.991258 -0.035482 0.0
0.976290 -0.061266 0.0
0.951260 -0.090156 0.0
0.912057 -0.123796 0.0
0.850744 -0.164425 0.0
0.750872 -0.214956 0.0
0.573292 -0.277570 0.0
0.229044 -0.342522 0.0
0.000000 0.288717 0.0
-0.000000 -0.000000 0.0
0.000000 0.000000 0.0
-0.040567 -0.040811 0.0
-0.086775 -0.157697 0.0
-0.086572 -0.219934 0.0
-0.068246 -0.202187 0.0
-0.036055 -0.126667 0.0
0.013525 -0.009841 0.0
0.066334 0.106832 0.0
0.102492 0.214063 0.0
0.117040 0.311130 0.0
0.107505 0.394995 0.0
0.076092 0.461575 0.0
0.031628 0.503778 0.0
-0.010939 0.510709 0.0
-0.036153 0.469866 0.0
-0.025639 0.361795 0.0
0.020086 0.212073 0.0
0.082044 0.057537 0.0
0.145521 -0.087136 0.0
0.201322 -0.211373 0.0
0.247259 -0.313941 0.0
0.282812 -0.393610 0.0
0.310023 -0.448984 0.0
0.334101 -0.477441 0.0
0.362769 -0.474626 0.0
0.403609 -0.436303 0.0
0.460483 -0.362449 0.0
0.531929 -0.260027 0.0
0.612645 -0.141487 0.0
0.694175 -0.022363 0.0
0.765943 0.080013 0.0
0.823131 0.163203 0.0
0.866600 0.230026 0.0
0.896964 0.282101 0.0
0.914886 0.320850 0.0
0.921037 0.347878 0.0
0.915917 0.365243 0.0
0.899779 0.375659 0.0
0.873037 0.382030 0.0
0.837400 0.385469 0.0
0.797115 0.382430 0.0
0.758723 0.364329 0.0
0.728531 0.322493 0.0
0.709715 0.254968 0.0
0.701876 0.168005 0.0
0.702881 0.071698 0.0
0.710474 -0.024416 0.0
0.722551 -0.112420 0.0
0.737104 -0.187710 0.0
0.752294 -0.248242 0.0
0.766516 -0.293668 0.0
0.778540 -0.324711 0.0
0.787703 -0.342574 0.0
0.794138 -0.348290 0.0
0.798909 -0.342138 0.0
0.803875 -0.323468 0.0
0.811178 -0.291219 0.0
0.822508 -0.245032 0.0
0.838546 -0.186272 0.0
0.858857 -0.118280 0.0
0.882143 -0.045814 0.0
0.906245 0.025223 0.0
0.928724 0.089218 0.0
0.947779 0.143547 0.0
0.962247 0.187230 0.0
0.971422 0.220496 0.0
0.974970 0.244403 0.0
0.972898 0.260452 0.0
0.965569 0.270116 0.0
0.953715 0.274305 0.0
0.938391 0.272958 0.0
0.920841 0.265011 0.0
0.902292 0.248916 0.0
0.883793 0.223467 0.0
0.866172 0.188509 0.0
0.850113 0.145148 0.0
0.836238 0.095548 0.0
0.825126 0.042536 0.0
0.817247 -0.010766 0.0
0.812774 -0.061337 0.0
0.811522 -0.106565 0.0
0.813050 -0.144245 0.0
0.816723 -0.172776 0.0
0.821804 -0.191201 0.0
0.827570 -0.199139 0.0
0.833411 -0.196619 0.0
0.838906 -0.183893 0.0
0.843836 -0.161496 0.0
0.847938 -0.126818 0.0
0.998090 -0.007937 0.0
0.990248 -0.024226 0.0
0.973666 -0.040972 0.0
0.946297 -0.058051 0.0
0.904466 -0.074867 0.0
0.842008 -0.089582 0.0
0.749556 -0.097475 0.0
0.615800 -0.083715 0.0
0.438251 -0.008831 0.0
0.169676 0.151561 0.0
0.000000 0.000000 0.0
-0.000000 -0.000000 0.0
0.000000 0.000000 0.0
-0.074111 -0.076028 0.0
-0.163928 -0.210072 0.0
-0.182305 -0.211998 0.0
-0.186608 -0.144743 0.0
-0.178178 -0.049773 0.0
-0.150989 0.066766 0.0
-0.118962 0.185945 0.0
-0.095468 0.301207 0.0
-0.085018 0.404003 0.0
-0.085128 0.484092 0.0
-0.087593 0.528190 0.0
-0.079913 0.521184 0.0
-0.044116 0.448808 0.0
0.021546 0.306678 0.0
0.099714 0.143296 0.0
0.178026 -0.013956 0.0
0.248328 -0.149422 0.0
0.306012 -0.262570 0.0
0.350054 -0.352723 0.0
0.379814 -0.420142 0.0
0.396058 -0.465907 0.0
0.402172 -0.490710 0.0
0.405218 -0.493071 0.0
0.415168 -0.468648 0.0
0.441147 -0.412956 0.0
0.486725 -0.326543 0.0
0.548538 -0.217500 0.0
0.619212 -0.098553 0.0
0.688682 0.014965 0.0
0.748574 0.111171 0.0
0.796478 0.190684 0.0
0.832463 0.255095 0.0
0.856627 0.305769 0.0
0.869064 0.344371 0.0
0.869812 0.373122 0.0
0.859062 0.394668 0.0
0.837877 0.410948 0.0
0.809262 0.420803 0.0
0.778548 0.418094 0.0
0.751955 0.393651 0.0
0.733888 0.341432 0.0
0.725461 0.263272 0.0
0.725477 0.167524 0.0
0.732183 0.064467 0.0
0.743893 -0.036486 0.0
0.758794 -0.127328 0.0
0.775036 -0.203597 0.0
0.790924 -0.263433 0.0
0.804991 -0.306766 0.0
0.816086 -0.334731 0.0
0.823494 -0.349126 0.0
0.827126 -0.351805 0.0
0.827738 -0.344006 0.0
0.827024 -0.325852 0.0
0.827332 -0.296446 0.0
0.830983 -0.254787 0.0
0.839483 -0.201056 0.0