# vtk DataFile Version 3.0
Scalar Field
ASCII
DATASET RECTILINEAR_GRID
DIMENSIONS 100 26 1
X_COORDINATES 100 double
0.050000 0.150000 0.250000 0.350000 0.450000 0.550000 0.650000 0.750000 0.850000 0.950000 1.050000 1.150000 1.250000 1.350000 1.450000 1.550000 1.650000 1.750000 1.850000 1.950000 2.050000 2.150000 2.250000 2.350000 2.450000 2.550000 2.650000 2.750000 2.850000 2.950000 3.050000 3.150000 3.250000 3.350000 3.450000 3.550000 3.650000 3.750000 3.850000 3.950000 4.050000 4.150000 4.250000 4.350000 4.450000 4.550000 4.650000 4.750000 4.850000 4.950000 5.050000 5.150000 5.250000 5.350000 5.450000 5.550000 5.650000 5.750000 5.850000 5.950000 6.050000 6.150000 6.250000 6.350000 6.450000 6.550000 6.650000 6.750000 6.850000 6.950000 7.050000 7.150000 7.250000 7.350000 7.450000 7.550000 7.650000 7.750000 7.850000 7.950000 8.050000 8.150000 8.250000 8.350000 8.450000 8.550000 8.650000 8.750000 8.850000 8.950000 9.050000 9.150000 9.250000 9.350000 9.450000 9.550000 9.650000 9.750000 9.850000 9.950000 
Y_COORDINATES 26 double
0.050000 0.150000 0.250000 0.350000 0.450000 0.550000 0.650000 0.750000 0.850000 0.950000 1.050000 1.150000 1.250000 1.350000 1.450000 1.550000 1.650000 1.750000 1.850000 1.950000 2.050000 2.150000 2.250000 2.350000 2.450000 2.550000 
Z_COORDINATES 1 double
0.0
POINT_DATA 2600
SCALARS Skalarfeld double 1
LOOKUP_TABLE default
0.192141
0.188449
0.180793
0.168781
0.152188
0.130919
0.105071
0.075043
0.041635
0.006076
-0.030082
-0.065219
-0.097941
-0.127261
-0.152660
-0.174036
-0.191600
-0.205725
-0.216796
-0.225082
-0.230652
-0.233371
-0.232841
-0.228731
-0.220886
-0.209401
-0.194659
-0.177288
-0.158078
-0.137871
-0.117465
-0.097538
-0.078597
-0.060964
-0.044777
-0.030011
-0.016524
-0.004101
0.007474
0.018314
0.028645
0.038206
0.046422
0.052511
0.055634
0.055139
0.050843
0.043247
0.033550
0.023413
0.014491
0.007989
0.004799
0.004700
0.007085
0.011137
0.015995
0.020893
0.025248
0.028702
0.031119
0.032571
0.033290
0.033599
0.033828
0.034212
0.034813
0.035762
0.036923
0.038128
0.039297
0.040388
0.041343
0.042026
0.042190
0.041475
0.039470
0.035816
0.030361
0.023284
0.015150
0.006820
-0.000814
-0.007082
-0.011831
-0.015491
-0.018789
-0.022619
-0.027811
-0.034869
-0.043802
-0.054148
-0.065227
-0.076493
-0.087770
-0.099156
-0.110701
-0.122560
-0.134312
-0.145592
0.195166
0.192341
0.184934
0.172906
0.156076
0.134301
0.107613
0.076379
0.041452
0.004228
-0.033466
-0.069768
-0.103166
-0.132679
-0.157878
-0.178794
-0.195782
-0.209358
-0.220032
-0.228154
-0.233802
-0.236759
-0.236592
-0.232781
-0.225070
-0.213511
-0.198493
-0.180689
-0.160947
-0.140169
-0.119198
-0.098744
-0.079334
-0.061297
-0.044771
-0.029727
-0.016011
-0.003393
0.008381
0.019544
0.029950
0.039348
0.047223
0.052841
0.055417
0.054347
0.049466
0.041258
0.030908
0.020124
0.010733
0.004152
0.000959
0.001036
0.003735
0.008175
0.013444
0.018742
0.023469
0.027260
0.029985
0.031724
0.032716
0.033286
0.033750
0.034346
0.035202
0.036131
0.037080
0.038003
0.038868
0.039661
0.040344
0.040796
0.040781
0.039946
0.037882
0.034234
0.028830
0.021807
0.013659
0.005198
-0.002601
-0.008912
-0.013713
-0.017392
-0.020641
-0.024351
-0.029348
-0.036126
-0.044685
-0.054580
-0.065183
-0.076021
-0.086951
-0.098186
-0.110172
-0.122853
-0.136008
-0.151601
0.203332
0.200735
0.193471
0.181379
0.164150
0.141459
0.113145
0.079459
0.041322
0.000491
-0.040522
-0.079279
-0.114029
-0.143852
-0.168538
-0.188409
-0.204131
-0.216523
-0.226365
-0.234184
-0.240102
-0.243786
-0.244550
-0.241503
-0.234185
-0.222550
-0.207009
-0.188330
-0.167488
-0.145502
-0.123309
-0.101684
-0.081190
-0.062178
-0.044792
-0.029006
-0.014667
-0.001542
0.010616
0.022004
0.032518
0.041796
0.049278
0.054210
0.055831
0.053586
0.047341
0.037591
0.025574
0.013159
0.002455
-0.004769
-0.007962
-0.007476
-0.004077
0.001236
0.007457
0.013724
0.019407
0.024130
0.027760
0.030371
0.032176
0.033448
0.034439
0.035316
0.036146
0.036894
0.037518
0.038030
0.038433
0.038750
0.038983
0.039050
0.038737
0.037704
0.035545
0.031899
0.026568
0.019631
0.011496
0.002880
-0.005326
-0.012317
-0.017419
-0.021243
-0.024421
-0.027775
-0.032089
-0.037868
-0.045210
-0.053856
-0.063407
-0.073580
-0.084351
-0.095933
-0.108636
-0.122695
-0.138149
-0.159574
0.216202
0.213714
0.206600
0.194504
0.176849
0.152949
0.122234
0.084633
0.041096
-0.006033
-0.052694
-0.095339
-0.131955
-0.161883
-0.185376
-0.203257
-0.216699
-0.227023
-0.235462
-0.242875
-0.249450
-0.254579
-0.257098
-0.255496
-0.248921
-0.237177
-0.220745
-0.200595
-0.177936
-0.153990
-0.129848
-0.106377
-0.084200
-0.063692
-0.045012
-0.028140
-0.012925
0.000865
0.013486
0.025156
0.035897
0.045138
0.052215
0.056309
0.056690
0.052872
0.044752
0.032817
0.018324
0.003313
-0.009708
-0.018375
-0.021630
-0.020495
-0.015975
-0.009266
-0.001532
0.006264
0.013437
0.019587
0.024568
0.028427
0.031330
0.033491
0.035106
0.036308
0.037164
0.037678
0.037836
0.037735
0.037568
0.037264
0.036881
0.036408
0.035690
0.034419
0.032205
0.028681
0.023615
0.017017
0.009189
0.000722
-0.007611
-0.015047
-0.020924
-0.024967
-0.028126
-0.031099
-0.034602
-0.039173
-0.045060
-0.052244
-0.060584
-0.069987
-0.080508
-0.092360
-0.105851
-0.121318
-0.139103
-0.165669
0.233572
0.231238
0.224471
0.212673
0.194866
0.169753
0.135975
0.092693
0.040623
-0.017144
-0.072763
-0.120773
-0.159265
-0.188423
-0.209373
-0.223709
-0.233315
-0.240242
-0.246457
-0.253404
-0.261443
-0.269459
-0.275199
-0.276203
-0.270927
-0.258981
-0.241062
-0.218552
-0.193076
-0.166189
-0.139200
-0.113107
-0.088593
-0.066060
-0.045670
-0.027403
-0.011099
0.003487
0.016631
0.028568
0.039537
0.048784
0.055444
0.058595
0.057613
0.052163
0.042207
0.028187
0.011258
-0.006581
-0.022646
-0.034151
-0.038693
-0.036936
-0.031140
-0.022709
-0.013045
-0.003283
0.005790
0.013720
0.020329
0.025631
0.029760
0.032888
0.035183
0.036767
0.037707
0.038020
0.037717
0.036860
0.035618
0.034515
0.033365
0.032241
0.031083
0.029632
0.027508
0.024332
0.019831
0.013932
0.006820
-0.001056
-0.009059
-0.016494
-0.022814
-0.027326
-0.030537
-0.033247
-0.036085
-0.039605
-0.044184
-0.050009
-0.057159
-0.065708
-0.075801
-0.087682
-0.101686
-0.118219
-0.137769
-0.167870
0.255148
0.253116
0.247116
0.236288
0.219119
0.193386
0.156299
0.105257
0.039835
-0.036621
-0.105894
-0.160020
-0.199028
-0.225280
-0.241333
-0.249727
-0.253174
-0.254665
-0.257282
-0.263568
-0.274395
-0.287985
-0.299790
-0.305381
-0.302305
-0.289972
-0.269648
-0.243512
-0.213889
-0.182824
-0.151916
-0.122306
-0.094732
-0.069602
-0.047069
-0.027091
-0.009496
0.005978
0.019611
0.031630
0.042190
0.051315
0.057391
0.059313
0.056778
0.049819
0.038608
0.023536
0.005483
-0.013908
-0.032184
-0.046465
-0.054309
-0.053284
-0.046915
-0.037156
-0.025743
-0.014049
-0.003028
0.006757
0.015057
0.021840
0.027202
0.031293
0.034264
0.036225
0.037230
0.037283
0.036400
0.034691
0.032414
0.029914
0.027860
0.026069
0.024564
0.023105
0.021310
0.018777
0.015184
0.010373
0.004407
-0.002415
-0.009600
-0.016550
-0.022710
-0.027679
-0.031041
-0.033636
-0.036042
-0.038802
-0.042366
-0.047066
-0.053144
-0.060814
-0.070309
-0.081922
-0.096015
-0.113025
-0.133476
-0.165282
0.280375
0.278874
0.274313
0.265598
0.250650
0.226012
0.186509
0.125698
0.038959
-0.072998
-0.161243
-0.218775
-0.253844
-0.273239
-0.281041
-0.280441
-0.274734
-0.267876
-0.264456
-0.268998
-0.283748
-0.306619
-0.330050
-0.343698
-0.344227
-0.331225
-0.307276
-0.275983
-0.240732
-0.204205
-0.168320
-0.134341
-0.103030
-0.074773
-0.049690
-0.027716
-0.008669
0.007695
0.021616
0.033244
0.042421
0.049638
0.054573
0.054493
0.049960
0.041847
0.030612
0.016393
-0.000472
-0.018965
-0.037198
-0.052629
-0.062761
-0.065302
-0.059457
-0.049502
-0.037288
-0.024384
-0.011935
-0.000658
0.009075
0.017147
0.023592
0.028522
0.032059
0.034287
0.035224
0.034850
0.033190
0.030434
0.026986
0.023377
0.020217
0.017832
0.016157
0.014928
0.013740
0.012158
0.009808
0.006446
0.002015
-0.003335
-0.009260
-0.015289
-0.020927
-0.025809
-0.029451
-0.031974
-0.034149
-0.036432
-0.039287
-0.043122
-0.048288
-0.055098
-0.063860
-0.074913
-0.088637
-0.105469
-0.125905
-0.157715
0.308273
0.307593
0.305347
0.300370
0.290232
0.270282
0.232007
0.161271
0.038792
-0.146653
-0.252890
-0.300099
-0.321859
-0.329465
-0.326053
-0.314160
-0.296858
-0.278631
-0.265511
-0.265216
-0.282587
-0.316517
-0.357588
-0.387175
-0.393272
-0.379486
-0.350939
-0.313431
-0.271694
-0.229072
-0.187747
-0.149050
-0.113725
-0.082119
-0.054315
-0.030236
-0.009724
0.007369
0.021102
0.031480
0.038417
0.041390
0.041166
0.038289
0.032380
0.024834
0.015746
0.004747
-0.008406
-0.023367
-0.038937
-0.053129
-0.063650
-0.068672
-0.065592
-0.056884
-0.045254
-0.032358
-0.019483
-0.007505
0.003055
0.011953
0.019125
0.024610
0.028471
0.030738
0.031380
0.030352
0.027717
0.023785
0.019147
0.014529
0.010550
0.007759
0.006140
0.005397
0.005094
0.004755
0.003944
0.002335
-0.000245
-0.003786
-0.008091
-0.012816
-0.017541
-0.021874
-0.025517
-0.028136
-0.030233
-0.032256
-0.034650
-0.037848
-0.042252
-0.048237
-0.056164
-0.066399
-0.079332
-0.095375
-0.114967
-0.145377
0.337340
0.337763
0.338726
0.339326
0.337438
0.328206
0.300405
0.228064
0.045262
-0.309137
-0.393453
-0.391580
-0.389334
-0.384052
-0.370194
-0.348477
-0.320877
-0.291638
-0.266050
-0.256916
-0.272383
-0.312603
-0.367456
-0.418193
-0.436415
-0.422846
-0.390443
-0.347716
-0.300693
-0.253195
-0.207523
-0.165014
-0.126397
-0.092015
-0.061962
-0.036195
-0.014672
0.002422
0.014521
0.021146
0.022742
0.020421
0.015156
0.009447
0.004493
-0.000114
-0.004963
-0.010833
-0.018392
-0.027862
-0.038719
-0.049616
-0.058655
-0.063949
-0.064179
-0.057888
-0.048098
-0.036480
-0.024351
-0.012685
-0.002135
0.006912
0.014270
0.019871
0.023688
0.025675
0.025740
0.023826
0.020064
0.014914
0.009156
0.003672
-0.000834
-0.003805
-0.005130
-0.005126
-0.004272
-0.003101
-0.002118
-0.001737
-0.002235
-0.003728
-0.006155
-0.009296
-0.012818
-0.016363
-0.019646
-0.022313
-0.024313
-0.026185
-0.028276
-0.030992
-0.034745
-0.039931
-0.046936
-0.056139
-0.067920
-0.082660
-0.100728
-0.128659
0.365565
0.367254
0.371984
0.379517
0.389016
0.397759
0.397047
0.357652
0.145041
-0.620337
-0.558950
-0.447458
-0.429051
-0.420309
-0.402166
-0.375226
-0.345616
-0.315219
-0.286246
-0.271821
-0.280329
-0.314473
-0.367119
-0.420831
-0.454100
-0.445011
-0.411420
-0.367030
-0.318522
-0.269725
-0.222832
-0.179135
-0.139402
-0.104078
-0.073415
-0.047618
-0.027078
-0.012611
-0.005164
-0.004706
-0.009357
-0.016192
-0.022930
-0.027360
-0.028970
-0.028890
-0.028197
-0.027941
-0.029045
-0.032116
-0.037191
-0.043555
-0.049825
-0.054364
-0.055894
-0.052818
-0.045497
-0.036100
-0.025727
-0.015342
-0.005675
0.002771
0.009681
0.014867
0.018197
0.019528
0.018712
0.015694
0.010691
0.004319
-0.002479
-0.008696
-0.013557
-0.016496
-0.017291
-0.016279
-0.014000
-0.011066
-0.008072
-0.005522
-0.003792
-0.003102
-0.003506
-0.004890
-0.007007
-0.009530
-0.012133
-0.014546
-0.016527
-0.018288
-0.020143
-0.022452
-0.025603
-0.029986
-0.035986
-0.043975
-0.054315
-0.067342
-0.083360
-0.108013
0.390653
0.393533
0.401849
0.416191
0.437566
0.467339
0.506670
0.553191
0.644495
0.012079
-0.494538
-0.430126
-0.433292
-0.434346
-0.424523
-0.402197
-0.376133
-0.350710
-0.329764
-0.317304
-0.319390
-0.338489
-0.372076
-0.410398
-0.435484
-0.435980
-0.404711
-0.362900
-0.317626
-0.272180
-0.228341
-0.187259
-0.149760
-0.116483
-0.087978
-0.064875
-0.048123
-0.038958
-0.037989
-0.043767
-0.052698
-0.060971
-0.066296
-0.066733
-0.063291
-0.057422
-0.050529
-0.043868
-0.038499
-0.035217
-0.034414
-0.035881
-0.038738
-0.041636
-0.043179
-0.042246
-0.038020
-0.031392
-0.023434
-0.015049
-0.006983
0.000189
0.006047
0.010291
0.012677
0.012972
0.010971
0.006633
0.000270
-0.007358
-0.015169
-0.022051
-0.027154
-0.029909
-0.029957
-0.027686
-0.023722
-0.018793
-0.013603
-0.008761
-0.004731
-0.001821
-0.000166
0.000263
-0.000353
-0.001726
-0.003530
-0.005492
-0.007254
-0.008808
-0.010394
-0.012286
-0.014820
-0.018357
-0.023258
-0.029876
-0.038539
-0.049538
-0.063111
-0.083904
0.410455
0.414176
0.425009
0.444057
0.473438
0.516860
0.580784
0.675984
0.805372
0.829284
0.000000
-0.430838
-0.431550
-0.432036
-0.430156
-0.425537
-0.417797
-0.408709
-0.401388
-0.393126
-0.386229
-0.384244
-0.388379
-0.396863
-0.399261
-0.391495
-0.369613
-0.333268
-0.294835
-0.256662
-0.219833
-0.185194
-0.153558
-0.125733
-0.102584
-0.085197
-0.074997
-0.073205
-0.079346
-0.090249
-0.101288
-0.108798
-0.110143
-0.105006
-0.095309
-0.082903
-0.069505
-0.056553
-0.045174
-0.036197
-0.030135
-0.027069
-0.026519
-0.027464
-0.028632
-0.028942
-0.027209
-0.023192
-0.017844
-0.011823
-0.005805
-0.000385
0.003953
0.006817
0.007865
0.006776
0.003304
-0.002565
-0.010429
-0.019397
-0.028263
-0.035813
-0.041113
-0.043549
-0.042656
-0.038899
-0.033027
-0.025908
-0.018387
-0.011189
-0.004863
0.000220
0.003868
0.006061
0.006937
0.006761
0.005867
0.004584
0.003183
0.001933
0.000706
-0.000693
-0.002538
-0.005145
-0.008838
-0.013936
-0.020729
-0.029455
-0.040285
-0.056788
0.423454
0.427495
0.439230
0.459739
0.490923
0.535589
0.596971
0.676964
0.770244
0.853196
0.758089
0.000000
-0.432562
-0.433574
-0.438625
-0.450744
-0.467645
-0.484273
-0.497138
-0.495167
-0.474505
-0.443870
-0.411641
-0.382788
-0.356353
-0.333167
-0.308081
-0.281018
-0.250856
-0.222062
-0.194796
-0.169413
-0.146573
-0.127155
-0.112303
-0.103549
-0.102568
-0.109937
-0.123541
-0.138702
-0.150422
-0.155493
-0.151190
-0.139468
-0.122802
-0.103536
-0.083694
-0.064866
-0.048200
-0.034467
-0.024126
-0.017332
-0.013829
-0.012873
-0.013343
-0.014048
-0.013979
-0.012478
-0.009645
-0.006023
-0.002203
0.001241
0.003791
0.004990
0.004415
0.001677
-0.003499
-0.011090
-0.020598
-0.031016
-0.041015
-0.049268
-0.054744
-0.056748
-0.054763
-0.049353
-0.041416
-0.031992
-0.022084
-0.012541
-0.004000
0.003123
0.008611
0.012428
0.014697
0.015677
0.015712
0.015168
0.014363
0.013540
0.012802
0.012020
0.010981
0.009422
0.007063
0.003628
-0.001124
-0.007379
-0.015241
-0.027128
0.429077
0.432917
0.443985
0.463035
0.491317
0.530299
0.580984
0.640972
0.696075
0.711567
0.662983
0.541900
0.000000
-0.443274
-0.452973
-0.483093
-0.525089
-0.570364
-0.603870
-0.602284
-0.562266
-0.500759
-0.432169
-0.367118
-0.311817
-0.268354
-0.235782
-0.209487
-0.188395
-0.169116
-0.152230
-0.137404
-0.125097
-0.116247
-0.112301
-0.115125
-0.126094
-0.144353
-0.165882
-0.184919
-0.196529
-0.197947
-0.186673
-0.167684
-0.143900
-0.118036
-0.092324
-0.068422
-0.047437
-0.030019
-0.016488
-0.006921
-0.001132
0.001434
0.001715
0.000843
-0.000181
-0.000443
0.000309
0.001787
0.003533
0.005022
0.005733
0.005163
0.002829
-0.001710
-0.008734
-0.018171
-0.029427
-0.041376
-0.052569
-0.061551
-0.067180
-0.068648
-0.065476
-0.058338
-0.048297
-0.036572
-0.024336
-0.012566
-0.001980
0.006972
0.014071
0.019296
0.022784
0.024807
0.025727
0.025938
0.025792
0.025593
0.025505
0.025488
0.025398
0.025026
0.024139
0.022510
0.019948
0.016328
0.011609
0.004590
0.427702
0.431005
0.440433
0.456332
0.479082
0.508681
0.543674
0.578741
0.600718
0.584878
0.512860
0.420817
0.249570
0.000000
-0.497601
-0.542229
-0.579575
-0.643228
-0.691361
-0.679741
-0.619871
-0.533072
-0.436541
-0.343606
-0.263869
-0.202974
-0.158730
-0.129468
-0.111141
-0.100476
-0.093301
-0.088927
-0.087860
-0.091201
-0.100617
-0.117804
-0.142960
-0.173193
-0.202726
-0.225204
-0.236264
-0.231075
-0.213042
-0.187105
-0.156885
-0.125418
-0.095028
-0.067319
-0.043271
-0.023361
-0.007734
0.003673
0.011073
0.014905
0.015921
0.015137
0.013587
0.012072
0.011243
0.010991
0.010981
0.010741
0.009755
0.007488
0.003413
-0.002939
-0.011833
-0.023134
-0.036145
-0.049624
-0.061998
-0.071681
-0.077414
-0.078254
-0.073873
-0.065053
-0.053013
-0.039149
-0.024791
-0.011040
0.001314
0.011798
0.020215
0.026576
0.031057
0.033960
0.035676
0.036628
0.037213
0.037740
0.038435
0.039330
0.040336
0.041294
0.042018
0.042330
0.042093
0.041240
0.039801
0.037838
0.420309
0.422828
0.429910
0.441497
0.457261
0.476134
0.495399
0.509147
0.506384
0.469647
0.380948
0.231349
0.078323
-0.357630
-0.598302
-0.537947
-0.591843
-0.675956
-0.725521
-0.695902
-0.620995
-0.520264
-0.410728
-0.305424
-0.213606
-0.140804
-0.088071
-0.053302
-0.032631
-0.023459
-0.024229
-0.028945
-0.039018
-0.055585
-0.080005
-0.112948
-0.152708
-0.194324
-0.230751
-0.255304
-0.263621
-0.251599
-0.227340
-0.195631
-0.160524
-0.125187
-0.091876
-0.062029
-0.036415
-0.015309
0.001334
0.013723
0.022136
0.026943
0.028710
0.028263
0.026565
0.024482
0.022517
0.021014
0.019680
0.018074
0.015677
0.011931
0.006278
-0.001758
-0.012407
-0.025455
-0.040098
-0.054981
-0.068410
-0.078680
-0.084425
-0.084564
-0.079035
-0.068708
-0.054936
-0.039261
-0.023151
-0.007809
0.005921
0.017562
0.026944
0.034133
0.039354
0.042951
0.045345
0.046990
0.048312
0.049656
0.051244
0.053179
0.055414
0.057835
0.060297
0.062668
0.064865
0.066882
0.068815
0.072030
0.408323
0.409965
0.414477
0.421518
0.430308
0.439232
0.445196
0.442698
0.422819
0.372308
0.273565
0.102823
-0.190584
-0.793583
-0.658657
-0.551569
-0.594840
-0.664227
-0.680338
-0.643240
-0.567775
-0.470248
-0.364885
-0.262614
-0.171207
-0.095714
-0.038297
0.002352
0.029270
0.043037
0.040904
0.030517
0.010688
-0.018497
-0.057169
-0.104282
-0.156122
-0.206199
-0.246843
-0.271631
-0.274148
-0.256466
-0.227528
-0.192185
-0.154537
-0.117639
-0.083535
-0.053409
-0.027794
-0.006768
0.009875
0.022467
0.031359
0.036889
0.039460
0.039652
0.038236
0.035996
0.033545
0.031337
0.029167
0.026625
0.023191
0.018287
0.011334
0.001869
-0.010288
-0.024827
-0.040841
-0.056865
-0.071102
-0.081751
-0.087366
-0.086764
-0.080225
-0.068680
-0.053581
-0.036578
-0.019238
-0.002829
0.011780
0.024123
0.034078
0.041766
0.047470
0.051575
0.054529
0.056808
0.058860
0.061057
0.063623
0.066699
0.070272
0.074261
0.078560
0.083080
0.087786
0.092733
0.098083
0.106522
0.393343
0.394142
0.396224
0.399097
0.401781
0.402522
0.398375
0.384687
0.354564
0.298393
0.203301
0.052341
-0.176537
-0.466339
-0.518533
-0.521836
-0.554998
-0.586255
-0.583580
-0.548159
-0.484932
-0.404009
-0.315633
-0.228273
-0.148114
-0.079019
-0.022502
0.021850
0.054218
0.072448
0.081696
0.071296
0.046117
0.008471
-0.039886
-0.095930
-0.154326
-0.207697
-0.248134
-0.269334
-0.264832
-0.244237
-0.213417
-0.177372
-0.140007
-0.104080
-0.071326
-0.042667
-0.018433
0.001439
0.017243
0.029383
0.038260
0.044218
0.047565
0.048664
0.048019
0.046227
0.043859
0.041484
0.038963
0.035931
0.031870
0.026184
0.018289
0.007743
-0.005563
-0.021226
-0.038230
-0.055018
-0.069713
-0.080451
-0.085742
-0.084404
-0.077049
-0.064651
-0.048726
-0.030990
-0.013055
0.003792
0.018696
0.031235
0.041343
0.049203
0.055148
0.059597
0.063014
0.065881
0.068655
0.071716
0.075319
0.079603
0.084584
0.090210
0.096405
0.103119
0.110363
0.118248
0.127001
0.140623
0.376907
0.376974
0.376974
0.376374
0.374181
0.368757
0.357583
0.337012
0.302076
0.246472
0.162850
0.044127
-0.111169
-0.281676
-0.375482
-0.424873
-0.460629
-0.479739
-0.475452
-0.448665
-0.401646
-0.340374
-0.271750
-0.201989
-0.135902
-0.076668
-0.025880
0.015981
0.048419
0.074133
0.086657
0.080312
0.056271
0.017328
-0.033001
-0.090124
-0.147724
-0.198097
-0.233604
-0.247208
-0.238752
-0.217367
-0.187661
-0.153925
-0.119519
-0.086766
-0.057088
-0.031196
-0.009306
0.008698
0.023119
0.034355
0.042814
0.048854
0.052756
0.054770
0.055184
0.054356
0.052807
0.050844
0.048469
0.045398
0.041135
0.035078
0.026644
0.015430
0.001402
-0.014939
-0.032480
-0.049588
-0.064333
-0.074830
-0.079599
-0.077545
-0.069574
-0.056704
-0.040488
-0.022662
-0.004827
0.011770
0.026342
0.038544
0.048386
0.056110
0.062091
0.066761
0.070582
0.074020
0.077522
0.081469
0.086133
0.091653
0.098068
0.105349
0.113447
0.122345
0.132098
0.142866
0.154938
0.173606
0.360349
0.359826
0.358171
0.354883
0.349066
0.339329
0.323673
0.299415
0.263207
0.211279
0.140076
0.047729
-0.062559
-0.177550
-0.264145
-0.322605
-0.361148
-0.381054
-0.381682
-0.364603
-0.331816
-0.287256
-0.235635
-0.181461
-0.128446
-0.079257
-0.035514
0.001981
0.033021
0.056728
0.068059
0.064186
0.044688
0.010996
-0.033703
-0.084411
-0.134500
-0.176415
-0.203103
-0.209085
-0.200593
-0.181432
-0.155525
-0.126371
-0.096709
-0.068450
-0.042774
-0.020283
-0.001164
0.014671
0.027480
0.037610
0.045431
0.051290
0.055468
0.058181
0.059612
0.059943
0.059706
0.058677
0.056949
0.054303
0.050273
0.044269
0.035724
0.024282
0.009989
-0.006558
-0.024164
-0.041134
-0.055520
-0.065447
-0.069479
-0.066726
-0.058316
-0.045322
-0.029324
-0.012038
0.005001
0.020658
0.034272
0.045621
0.054807
0.062133
0.067993
0.072811
0.077018
0.081045
0.085305
0.090161
0.095894
0.102646
0.110477
0.119378
0.129327
0.140337
0.152500
0.166024
0.181256
0.204726
0.344744
0.343775
0.340879
0.335629
0.327280
0.314724
0.296459
0.270607
0.235034
0.187649
0.127002
0.053300
-0.029983
-0.114709
-0.186888
-0.241866
-0.280142
-0.302162
-0.308069
-0.299128
-0.277273
-0.245395
-0.206886
-0.165093
-0.122922
-0.082623
-0.045767
-0.013375
0.014107
0.034111
0.044160
0.042223
0.027584
0.001125
-0.034501
-0.074829
-0.113940
-0.145339
-0.163369
-0.167028
-0.159958
-0.144495
-0.123499
-0.099652
-0.075141
-0.051554
-0.029920
-0.010803
0.005586
0.019283
0.030485
0.039481
0.046594
0.052145
0.056409
0.059598
0.061861
0.063420
0.064398
0.064525
0.063797
0.061965
0.058564
0.053011
0.044766
0.033524
0.019408
0.003100
-0.014129
-0.030545
-0.044199
-0.053257
-0.056276
-0.052853
-0.044145
-0.031318
-0.015982
0.000196
0.015807
0.029890
0.041977
0.052013
0.060219
0.066948
0.072592
0.077537
0.082153
0.086811
0.091870
0.097660
0.104460
0.112410
0.121593
0.132027
0.143714
0.156696
0.171098
0.187173
0.205322
0.233242
0.330911
0.329614
0.325830
0.319219
0.309194
0.294912
0.275288
0.249056
0.214914
0.171793
0.119299
0.058326
-0.008230
-0.075133
-0.135253
-0.184254
-0.220470
-0.243387
-0.253020
-0.250018
-0.236051
-0.213354
-0.184497
-0.152066
-0.118391
-0.085392
-0.054544
-0.026955
-0.003643
0.013443
0.022645
0.022559
0.012605
-0.006576
-0.032863
-0.062654
-0.091283
-0.113931
-0.126818
-0.130062
-0.124878
-0.112944
-0.096338
-0.077111
-0.057027
-0.037441
-0.019282
-0.003095
0.010884
0.022656
0.032378
0.040300
0.046718
0.051927
0.056190
0.059714
0.062633
0.065245
0.067195
0.068435
0.068816
0.068005
0.065496
0.060697
0.053086
0.042403
0.028835
0.013138
-0.003356
-0.018878
-0.031495
-0.039479
-0.041088
-0.037078
-0.028192
-0.015763
-0.001438
0.013186
0.026864
0.038865
0.048971
0.057340
0.064332
0.070345
0.075744
0.080840
0.085914
0.091250
0.097144
0.103888
0.111717
0.120794
0.131224
0.143050
0.156302
0.171049
0.187450
0.205794
0.226535
0.258439
0.319443
0.317907
0.313501
0.305977
0.294894
0.279626
0.259402
0.233389
0.200822
0.161220
0.114694
0.062298
0.006346
-0.049561
-0.101068
-0.144742
-0.178523
-0.201418
-0.213267
-0.214268
-0.205763
-0.189513
-0.167554
-0.141963
-0.114670
-0.087340
-0.061342
-0.037804
-0.017877
-0.002959
0.005734
0.007219
0.001094
-0.012136
-0.030839
-0.052282
-0.073016
-0.089615
-0.099643
-0.102471
-0.098573
-0.089117
-0.075645
-0.059776
-0.042974
-0.026420
-0.010961
0.002882
0.014874
0.025003
0.033419
0.040370
0.046142
0.051023
0.055267
0.059075
0.062608
0.065846
0.068629
0.070846
0.072262
0.072477
0.070941
0.067041
0.060258
0.050361
0.037584
0.022743
0.007225
-0.007164
-0.018481
-0.025020
-0.025502
-0.020839
-0.011856
0.000018
0.013123
0.025945
0.037414
0.047047
0.054905
0.061400
0.067055
0.072317
0.077496
0.082797
0.088377
0.094416
0.101135
0.108801
0.117582
0.127675
0.139201
0.152231
0.166820
0.183067
0.201157
0.221418
0.244346
0.279670
0.310777
0.309035
0.304175
0.296050
0.284327
0.268534
0.248121
0.222534
0.191336
0.154374
0.111985
0.065213
0.015954
-0.033107
-0.078877
-0.118605
-0.150308
-0.172837
-0.185829
-0.189387
-0.184496
-0.172594
-0.155362
-0.134547
-0.111804
-0.088608
-0.066222
-0.045733
-0.028238
-0.014822
-0.006436
-0.003814
-0.007250
-0.016343
-0.029833
-0.045627
-0.061114
-0.073735
-0.081662
-0.083872
-0.080557
-0.072539
-0.061024
-0.047343
-0.032759
-0.018322
-0.004810
0.007289
0.017748
0.026564
0.033896
0.040006
0.045201
0.049784
0.054014
0.058084
0.062045
0.065812
0.069306
0.072353
0.074659
0.075779
0.075136
0.072104
0.066164
0.057097
0.045173
0.031253
0.016775
0.003580
-0.006384
-0.011474
-0.011038
-0.005856
0.003117
0.014383
0.026277
0.037359
0.046701
0.054032
0.059674
0.064297
0.068615
0.073147
0.078149
0.083702
0.089804
0.096517
0.103998
0.112432
0.122027
0.132970
0.145392
0.159387
0.175039
0.192467
0.211886
0.233647
0.258286
0.296394
0.305292
0.303242
0.297994
0.289469
0.277378
0.261335
0.240916
0.215733
0.185530
0.150322
0.110542
0.067187
0.021893
-0.023142
-0.065430
-0.102629
-0.132890
-0.155034
-0.168571
-0.173612
-0.170920
-0.161713
-0.147453
-0.129680
-0.109880
-0.089400
-0.069416
-0.050940
-0.034994
-0.022506
-0.014275
-0.010916
-0.012680
-0.019251
-0.029596
-0.042003
-0.054337
-0.064480
-0.070846
-0.072478
-0.069365
-0.062119
-0.051736
-0.039373
-0.026155
-0.013047
-0.000775
0.010195
0.019648
0.027579
0.034152
0.039638
0.044366
0.048668
0.052849
0.057114
0.061364
0.065603
0.069703
0.073437
0.076467
0.078316
0.078391
0.076059
0.070801
0.062409
0.051175
0.038004
0.024383
0.012182
0.003334
-0.000661
0.000264
0.005695
0.014548
0.025284
0.036254
0.046062
0.053858
0.059483
0.063413
0.066507
0.069655
0.073490
0.078284
0.084061
0.090568
0.097788
0.105838
0.114870
0.125077
0.136640
0.149705
0.164384
0.180781
0.199034
0.219373
0.242169
0.267975
0.308164
0.303567
0.300604
0.294971
0.286209
0.273951
0.257824
0.237458
0.212538
0.182886
0.148579
0.110080
0.068348
0.024893
-0.018296
-0.058976
-0.094982
-0.124543
-0.146486
-0.160318
-0.166050
-0.164389
-0.156454
-0.143599
-0.127266
-0.108863
-0.089681
-0.070874
-0.053478
-0.038337
-0.026271
-0.018056
-0.014286
-0.015223
-0.020604
-0.029506
-0.040378
-0.051289
-0.060367
-0.066079
-0.067433
-0.064406
-0.057522
-0.047673
-0.035924
-0.023330
-0.010809
0.000937
0.011451
0.020518
0.028127
0.034435
0.039706
0.044265
0.048440
0.052496
0.056605
0.061044
0.065638
0.070181
0.074403
0.077933
0.080272
0.080808
0.078897
0.074008
0.065930
0.054972
0.042081
0.028806
0.017046
0.008595
0.004724
0.005777
0.011208
0.019895
0.030321
0.040882
0.050217
0.057497
0.062567
0.065908
0.068401
0.070990
0.074369
0.078848
0.084377
0.090971
0.098477
0.106858
0.116232
0.126778
0.138681
0.152093
0.167138
0.183928
0.202610
0.223418
0.246729
0.273100
0.314273
