# vtk DataFile Version 3.0
Vector Field
ASCII
DATASET RECTILINEAR_GRID
DIMENSIONS 100 26 1
X_COORDINATES 100 double
0.050000 0.150000 0.250000 0.350000 0.450000 0.550000 0.650000 0.750000 0.850000 0.950000 1.050000 1.150000 1.250000 1.350000 1.450000 1.550000 1.650000 1.750000 1.850000 1.950000 2.050000 2.150000 2.250000 2.350000 2.450000 2.550000 2.650000 2.750000 2.850000 2.950000 3.050000 3.150000 3.250000 3.350000 3.450000 3.550000 3.650000 3.750000 3.850000 3.950000 4.050000 4.150000 4.250000 4.350000 4.450000 4.550000 4.650000 4.750000 4.850000 4.950000 5.050000 5.150000 5.250000 5.350000 5.450000 5.550000 5.650000 5.750000 5.850000 5.950000 6.050000 6.150000 6.250000 6.350000 6.450000 6.550000 6.650000 6.750000 6.850000 6.950000 7.050000 7.150000 7.250000 7.350000 7.450000 7.550000 7.650000 7.750000 7.850000 7.950000 8.050000 8.150000 8.250000 8.350000 8.450000 8.550000 8.650000 8.750000 8.850000 8.950000 9.050000 9.150000 9.250000 9.350000 9.450000 9.550000 9.650000 9.750000 9.850000 9.950000 
Y_COORDINATES 26 double
0.050000 0.150000 0.250000 0.350000 0.450000 0.550000 0.650000 0.750000 0.850000 0.950000 1.050000 1.150000 1.250000 1.350000 1.450000 1.550000 1.650000 1.750000 1.850000 1.950000 2.050000 2.150000 2.250000 2.350000 2.450000 2.550000 
Z_COORDINATES 1 double
0.0
POINT_DATA 2600
VECTORS Vektorfeld double
1.000773 -0.000773 0.0
1.004381 -0.002836 0.0
1.012339 -0.005122 0.0
1.024982 -0.007521 0.0
1.042448 -0.009945 0.0
1.064670 -0.012276 0.0
1.091298 -0.014352 0.0
1.121625 -0.015974 0.0
1.154541 -0.016942 0.0
1.188584 -0.017101 0.0
1.222096 -0.016411 0.0
1.253441 -0.014935 0.0
1.281164 -0.012788 0.0
1.304043 -0.010090 0.0
1.321078 -0.006945 0.0
1.331483 -0.003461 0.0
1.334727 0.000216 0.0
1.330574 0.003937 0.0
1.319111 0.007527 0.0
1.300777 0.010807 0.0
1.276352 0.013618 0.0
1.246897 0.015837 0.0
1.213677 0.017382 0.0
1.178077 0.018217 0.0
1.141508 0.018352 0.0
1.105308 0.017849 0.0
1.070641 0.016819 0.0
1.038411 0.015411 0.0
1.009213 0.013788 0.0
0.983333 0.012092 0.0
0.960814 0.010427 0.0
0.941540 0.008847 0.0
0.925322 0.007371 0.0
0.911952 0.005998 0.0
0.901232 0.004722 0.0
0.892970 0.003540 0.0
0.886972 0.002458 0.0
0.883031 0.001482 0.0
0.880938 0.000612 0.0
0.880477 -0.000151 0.0
0.881413 -0.000784 0.0
0.883479 -0.001282 0.0
0.886416 -0.001655 0.0
0.889988 -0.001917 0.0
0.893987 -0.002082 0.0
0.898236 -0.002167 0.0
0.902591 -0.002187 0.0
0.906934 -0.002156 0.0
0.911176 -0.002086 0.0
0.915251 -0.001989 0.0
0.919112 -0.001873 0.0
0.922730 -0.001746 0.0
0.926090 -0.001614 0.0
0.929184 -0.001481 0.0
0.932016 -0.001351 0.0
0.934595 -0.001227 0.0
0.936931 -0.001109 0.0
0.939040 -0.001000 0.0
0.940938 -0.000898 0.0
0.942641 -0.000805 0.0
0.944166 -0.000720 0.0
0.945529 -0.000643 0.0
0.946745 -0.000573 0.0
0.947829 -0.000511 0.0
0.948794 -0.000454 0.0
0.949652 -0.000404 0.0
0.950414 -0.000359 0.0
0.951091 -0.000318 0.0
0.951693 -0.000283 0.0
0.952226 -0.000251 0.0
0.952699 -0.000222 0.0
0.953118 -0.000197 0.0
0.953490 -0.000175 0.0
0.953819 -0.000155 0.0
0.954111 -0.000137 0.0
0.954369 -0.000121 0.0
0.954598 -0.000107 0.0
0.954801 -0.000095 0.0
0.954980 -0.000084 0.0
0.955139 -0.000075 0.0
0.955280 -0.000066 0.0
0.955405 -0.000059 0.0
0.955516 -0.000052 0.0
0.955615 -0.000046 0.0
0.955702 -0.000041 0.0
0.955781 -0.000037 0.0
0.955851 -0.000033 0.0
0.955915 -0.000030 0.0
0.955973 -0.000028 0.0
0.956027 -0.000026 0.0
0.956077 -0.000025 0.0
0.956127 -0.000025 0.0
0.956177 -0.000025 0.0
0.956230 -0.000028 0.0
0.956290 -0.000032 0.0
0.956364 -0.000041 0.0
0.956462 -0.000058 0.0
0.956611 -0.000091 0.0
0.956880 -0.000178 0.0
0.957332 -0.000275 0.0
1.001319 -0.002865 0.0
1.006323 -0.009356 0.0
1.016081 -0.016318 0.0
1.030694 -0.023581 0.0
1.050280 -0.030937 0.0
1.074825 -0.038051 0.0
1.104050 -0.044432 0.0
1.137284 -0.049455 0.0
1.173378 -0.052471 0.0
1.210726 -0.052962 0.0
1.247469 -0.050806 0.0
1.281838 -0.046253 0.0
1.312345 -0.039700 0.0
1.337811 -0.031522 0.0
1.357286 -0.022022 0.0
1.369995 -0.011498 0.0
1.375333 -0.000329 0.0
1.372960 0.011008 0.0
1.362932 0.021947 0.0
1.345726 0.031927 0.0
1.322190 0.040459 0.0
1.293467 0.047175 0.0
1.260893 0.051839 0.0
1.225893 0.054360 0.0
1.189885 0.054786 0.0
1.154190 0.053309 0.0
1.119949 0.050266 0.0
1.088044 0.046098 0.0
1.059057 0.041287 0.0
1.033270 0.036260 0.0
1.010721 0.031327 0.0
0.991288 0.026653 0.0
0.974782 0.022290 0.0
0.961008 0.018224 0.0
0.949791 0.014432 0.0
0.940976 0.010905 0.0
0.934412 0.007656 0.0
0.929926 0.004711 0.0
0.927309 0.002094 0.0
0.926310 -0.000175 0.0
0.926680 -0.002066 0.0
0.928193 -0.003579 0.0
0.930632 -0.004735 0.0
0.933788 -0.005566 0.0
0.937469 -0.006112 0.0
0.941498 -0.006416 0.0
0.945725 -0.006520 0.0
0.950022 -0.006464 0.0
0.954287 -0.006286 0.0
0.958441 -0.006018 0.0
0.962425 -0.005689 0.0
0.966198 -0.005321 0.0
0.969734 -0.004934 0.0
0.973020 -0.004541 0.0
0.976051 -0.004154 0.0
0.978830 -0.003781 0.0
0.981365 -0.003426 0.0
0.983666 -0.003093 0.0
0.985748 -0.002784 0.0
0.987626 -0.002500 0.0
0.989316 -0.002239 0.0
0.990832 -0.002002 0.0
0.992189 -0.001788 0.0
0.993403 -0.001594 0.0
0.994488 -0.001420 0.0
0.995454 -0.001263 0.0
0.996316 -0.001123 0.0
0.997082 -0.000998 0.0
0.997764 -0.000886 0.0
0.998370 -0.000786 0.0
0.998909 -0.000698 0.0
0.999387 -0.000619 0.0
0.999811 -0.000549 0.0
1.000187 -0.000486 0.0
1.000521 -0.000431 0.0
1.000817 -0.000382 0.0
1.001080 -0.000338 0.0
1.001312 -0.000300 0.0
1.001518 -0.000266 0.0
1.001701 -0.000235 0.0
1.001863 -0.000209 0.0
1.002006 -0.000185 0.0
1.002134 -0.000164 0.0
1.002247 -0.000146 0.0
1.002347 -0.000130 0.0
1.002437 -0.000116 0.0
1.002517 -0.000105 0.0
1.002590 -0.000095 0.0
1.002655 -0.000087 0.0
1.002715 -0.000081 0.0
1.002770 -0.000077 0.0
1.002823 -0.000075 0.0
1.002875 -0.000077 0.0
1.002927 -0.000082 0.0
1.002983 -0.000094 0.0
1.003045 -0.000115 0.0
1.003115 -0.000153 0.0
1.003194 -0.000223 0.0
1.003248 -0.000369 0.0
1.003249 -0.000537 0.0
1.001202 -0.005386 0.0
1.006012 -0.016648 0.0
1.015718 -0.028491 0.0
1.030549 -0.040852 0.0
1.050782 -0.053485 0.0
1.076610 -0.065875 0.0
1.107954 -0.077177 0.0
1.144245 -0.086234 0.0
1.184241 -0.091783 0.0
1.225910 -0.092667 0.0
1.266787 -0.088722 0.0
1.304689 -0.080608 0.0
1.338031 -0.069195 0.0
1.365700 -0.055163 0.0
1.386800 -0.038957 0.0
1.400516 -0.020988 0.0
1.406190 -0.001850 0.0
1.403493 0.017599 0.0
1.392527 0.036350 0.0
1.373858 0.053399 0.0
1.348490 0.067891 0.0
1.317744 0.079211 0.0
1.283112 0.087009 0.0
1.246118 0.091184 0.0
1.208224 0.091864 0.0
1.170753 0.089396 0.0
1.134835 0.084338 0.0
1.101350 0.077416 0.0
1.070886 0.069419 0.0
1.043736 0.061064 0.0
1.019934 0.052874 0.0
0.999343 0.045131 0.0
0.981746 0.037915 0.0
0.966925 0.031194 0.0
0.954699 0.024906 0.0
0.944918 0.019026 0.0
0.937449 0.013569 0.0
0.932145 0.008589 0.0
0.928831 0.004148 0.0
0.927300 0.000300 0.0
0.927322 -0.002932 0.0
0.928645 -0.005548 0.0
0.931016 -0.007575 0.0
0.934189 -0.009056 0.0
0.937938 -0.010052 0.0
0.942062 -0.010630 0.0
0.946389 -0.010860 0.0
0.950780 -0.010812 0.0
0.955125 -0.010548 0.0
0.959341 -0.010125 0.0
0.963368 -0.009593 0.0
0.967169 -0.008990 0.0
0.970717 -0.008350 0.0
0.974004 -0.007697 0.0
0.977026 -0.007051 0.0
0.979788 -0.006426 0.0
0.982302 -0.005830 0.0
0.984580 -0.005269 0.0
0.986637 -0.004748 0.0
0.988489 -0.004267 0.0
0.990153 -0.003825 0.0
0.991644 -0.003423 0.0
0.992978 -0.003059 0.0
0.994170 -0.002729 0.0
0.995234 -0.002432 0.0
0.996182 -0.002166 0.0
0.997026 -0.001926 0.0
0.997778 -0.001712 0.0
0.998445 -0.001521 0.0
0.999039 -0.001351 0.0
0.999566 -0.001199 0.0
1.000034 -0.001064 0.0
1.000449 -0.000943 0.0
1.000817 -0.000836 0.0
1.001143 -0.000741 0.0
1.001433 -0.000657 0.0
1.001689 -0.000582 0.0
1.001917 -0.000516 0.0
1.002118 -0.000457 0.0
1.002297 -0.000405 0.0
1.002455 -0.000359 0.0
1.002595 -0.000318 0.0
1.002720 -0.000283 0.0
1.002830 -0.000251 0.0
1.002928 -0.000224 0.0
1.003016 -0.000200 0.0
1.003094 -0.000179 0.0
1.003164 -0.000162 0.0
1.003227 -0.000148 0.0
1.003284 -0.000137 0.0
1.003337 -0.000129 0.0
1.003386 -0.000125 0.0
1.003434 -0.000126 0.0
1.003480 -0.000132 0.0
1.003526 -0.000146 0.0
1.003573 -0.000171 0.0
1.003620 -0.000214 0.0
1.003660 -0.000281 0.0
1.003679 -0.000383 0.0
1.003660 -0.000506 0.0
1.001146 -0.007734 0.0
1.005812 -0.023777 0.0
1.015407 -0.040665 0.0
1.030380 -0.058482 0.0
1.051313 -0.077021 0.0
1.078787 -0.095641 0.0
1.113149 -0.113117 0.0
1.154111 -0.127548 0.0
1.200427 -0.136782 0.0
1.249200 -0.138110 0.0
1.296566 -0.131521 0.0
1.339612 -0.118758 0.0
1.376821 -0.101596 0.0
1.407476 -0.081085 0.0
1.430945 -0.057605 0.0
1.446320 -0.031431 0.0
1.452624 -0.003384 0.0
1.449276 0.025177 0.0
1.436318 0.052696 0.0
1.414461 0.077579 0.0
1.385025 0.098515 0.0
1.349723 0.114635 0.0
1.310407 0.125534 0.0
1.268870 0.131190 0.0
1.226731 0.131891 0.0
1.185381 0.128189 0.0
1.145962 0.120882 0.0
1.109345 0.110974 0.0
1.076117 0.099554 0.0
1.046567 0.087630 0.0
1.020727 0.075949 0.0
0.998449 0.064925 0.0
0.979500 0.054667 0.0
0.963648 0.045115 0.0
0.950696 0.036164 0.0
0.940483 0.027762 0.0
0.932855 0.019930 0.0
0.927636 0.012751 0.0
0.924612 0.006324 0.0
0.923531 0.000736 0.0
0.924104 -0.003963 0.0
0.926029 -0.007766 0.0
0.929005 -0.010705 0.0
0.932753 -0.012846 0.0
0.937019 -0.014277 0.0
0.941589 -0.015098 0.0
0.946287 -0.015416 0.0
0.950972 -0.015332 0.0
0.955541 -0.014941 0.0
0.959918 -0.014326 0.0
0.964055 -0.013556 0.0
0.967919 -0.012691 0.0
0.971498 -0.011776 0.0
0.974788 -0.010847 0.0
0.977794 -0.009930 0.0
0.980527 -0.009043 0.0
0.983002 -0.008201 0.0
0.985235 -0.007409 0.0
0.987244 -0.006674 0.0
0.989048 -0.005996 0.0
0.990664 -0.005375 0.0
0.992109 -0.004810 0.0
0.993400 -0.004297 0.0
0.994552 -0.003834 0.0
0.995578 -0.003417 0.0
0.996491 -0.003042 0.0
0.997303 -0.002706 0.0
0.998026 -0.002406 0.0
0.998667 -0.002137 0.0
0.999237 -0.001898 0.0
0.999743 -0.001684 0.0
1.000192 -0.001494 0.0
1.000590 -0.001325 0.0
1.000943 -0.001175 0.0
1.001256 -0.001042 0.0
1.001533 -0.000923 0.0
1.001779 -0.000818 0.0
1.001997 -0.000725 0.0
1.002189 -0.000642 0.0
1.002360 -0.000569 0.0
1.002512 -0.000504 0.0
1.002646 -0.000447 0.0
1.002765 -0.000397 0.0
1.002870 -0.000353 0.0
1.002964 -0.000314 0.0
1.003047 -0.000280 0.0
1.003121 -0.000251 0.0
1.003187 -0.000226 0.0
1.003247 -0.000206 0.0
1.003300 -0.000190 0.0
1.003349 -0.000178 0.0
1.003394 -0.000171 0.0
1.003435 -0.000169 0.0
1.003474 -0.000174 0.0
1.003511 -0.000187 0.0
1.003544 -0.000211 0.0
1.003573 -0.000249 0.0
1.003591 -0.000305 0.0
1.003592 -0.000378 0.0
1.003567 -0.000466 0.0
1.001068 -0.009947 0.0
1.005465 -0.030627 0.0
1.014666 -0.052612 0.0
1.029394 -0.076235 0.0
1.050670 -0.101476 0.0
1.079712 -0.127704 0.0
1.117664 -0.153367 0.0
1.164920 -0.175515 0.0
1.220780 -0.190992 0.0
1.280386 -0.192279 0.0
1.336421 -0.180754 0.0
1.384996 -0.161146 0.0
1.425544 -0.136964 0.0
1.458742 -0.109569 0.0
1.484843 -0.078690 0.0
1.502839 -0.043716 0.0
1.510863 -0.005426 0.0
1.507488 0.033940 0.0
1.492437 0.071941 0.0
1.466570 0.106058 0.0
1.431705 0.134336 0.0
1.390179 0.155642 0.0
1.344413 0.169610 0.0
1.296621 0.176444 0.0
1.248669 0.176728 0.0
1.202053 0.171318 0.0
1.157924 0.161303 0.0
1.117120 0.147972 0.0
1.080197 0.132708 0.0
1.047430 0.116793 0.0
1.018855 0.101201 0.0
0.994334 0.086473 0.0
0.973645 0.072757 0.0
0.956558 0.059964 0.0
0.942868 0.047957 0.0
0.932381 0.036669 0.0
0.924891 0.026142 0.0
0.920151 0.016498 0.0
0.917862 0.007887 0.0
0.917683 0.000433 0.0
0.919243 -0.005792 0.0
0.922166 -0.010785 0.0
0.926098 -0.014595 0.0
0.930717 -0.017322 0.0
0.935746 -0.019096 0.0
0.940959 -0.020062 0.0
0.946177 -0.020368 0.0
0.951268 -0.020157 0.0
0.956140 -0.019557 0.0
0.960732 -0.018679 0.0
0.965008 -0.017615 0.0
0.968953 -0.016442 0.0
0.972565 -0.015217 0.0
0.975853 -0.013984 0.0
0.978832 -0.012777 0.0
0.981521 -0.011617 0.0
0.983939 -0.010520 0.0
0.986110 -0.009494 0.0
0.988053 -0.008543 0.0
0.989791 -0.007669 0.0
0.991342 -0.006870 0.0
0.992726 -0.006144 0.0
0.993958 -0.005486 0.0
0.995055 -0.004893 0.0
0.996030 -0.004359 0.0
0.996897 -0.003880 0.0
0.997667 -0.003451 0.0
0.998351 -0.003067 0.0
0.998957 -0.002725 0.0
0.999496 -0.002419 0.0
0.999973 -0.002147 0.0
1.000397 -0.001904 0.0
1.000772 -0.001689 0.0
1.001105 -0.001497 0.0
1.001400 -0.001327 0.0
1.001661 -0.001176 0.0
1.001892 -0.001042 0.0
1.002097 -0.000923 0.0
1.002278 -0.000818 0.0
1.002439 -0.000725 0.0
1.002581 -0.000642 0.0
1.002707 -0.000570 0.0
1.002819 -0.000505 0.0
1.002918 -0.000449 0.0
1.003005 -0.000399 0.0
1.003083 -0.000356 0.0
1.003152 -0.000318 0.0
1.003213 -0.000286 0.0
1.003268 -0.000260 0.0
1.003317 -0.000238 0.0
1.003360 -0.000222 0.0
1.003400 -0.000211 0.0
1.003435 -0.000206 0.0
1.003466 -0.000208 0.0
1.003494 -0.000217 0.0
1.003516 -0.000237 0.0
1.003531 -0.000267 0.0
1.003536 -0.000310 0.0
1.003525 -0.000363 0.0
1.003496 -0.000427 0.0
1.000922 -0.011937 0.0
1.004766 -0.036877 0.0
1.012984 -0.063780 0.0
1.026588 -0.093398 0.0
1.047140 -0.126141 0.0
1.076773 -0.161713 0.0
1.118009 -0.198545 0.0
1.172754 -0.232337 0.0
1.242835 -0.260112 0.0
1.318056 -0.257985 0.0
1.382476 -0.235503 0.0
1.432511 -0.205006 0.0
1.471346 -0.172487 0.0
1.503138 -0.139037 0.0
1.530327 -0.102513 0.0
1.552095 -0.059658 0.0
1.564495 -0.009908 0.0
1.563619 0.042672 0.0
1.548112 0.093768 0.0
1.518973 0.139238 0.0
1.478796 0.176197 0.0
1.430834 0.203268 0.0
1.378284 0.220300 0.0
1.323897 0.227934 0.0
1.269838 0.227247 0.0
1.217714 0.219538 0.0
1.168664 0.206264 0.0
1.123461 0.189018 0.0
1.082591 0.169455 0.0
1.046300 0.149104 0.0
1.014635 0.129129 0.0
0.987515 0.110187 0.0
0.964787 0.092460 0.0
0.946278 0.075856 0.0
0.931803 0.060231 0.0
0.921141 0.045543 0.0
0.914014 0.031883 0.0
0.910074 0.019438 0.0
0.908900 0.008409 0.0
0.910028 -0.001037 0.0
0.912973 -0.008827 0.0
0.917270 -0.014971 0.0
0.922490 -0.019561 0.0
0.928263 -0.022748 0.0
0.934285 -0.024721 0.0
0.940320 -0.025683 0.0
0.946192 -0.025837 0.0
0.951784 -0.025371 0.0
0.957020 -0.024451 0.0
0.961860 -0.023217 0.0
0.966292 -0.021785 0.0
0.970318 -0.020244 0.0
0.973956 -0.018665 0.0
0.977228 -0.017097 0.0
0.980161 -0.015577 0.0
0.982784 -0.014129 0.0
0.985125 -0.012768 0.0
0.987212 -0.011502 0.0
0.989069 -0.010335 0.0
0.990721 -0.009266 0.0
0.992189 -0.008292 0.0
0.993493 -0.007409 0.0
0.994651 -0.006611 0.0
0.995679 -0.005893 0.0
0.996591 -0.005247 0.0
0.997399 -0.004668 0.0
0.998116 -0.004150 0.0
0.998752 -0.003688 0.0
0.999316 -0.003275 0.0
0.999815 -0.002907 0.0
1.000258 -0.002579 0.0
1.000650 -0.002288 0.0
1.000997 -0.002028 0.0
1.001305 -0.001798 0.0
1.001577 -0.001594 0.0
1.001818 -0.001412 0.0
1.002032 -0.001251 0.0
1.002221 -0.001108 0.0
1.002388 -0.000982 0.0
1.002536 -0.000870 0.0
1.002667 -0.000771 0.0
1.002783 -0.000683 0.0
1.002886 -0.000606 0.0
1.002976 -0.000538 0.0
1.003057 -0.000478 0.0
1.003128 -0.000426 0.0
1.003190 -0.000380 0.0
1.003246 -0.000341 0.0
1.003295 -0.000308 0.0
1.003338 -0.000281 0.0
1.003376 -0.000260 0.0
1.003410 -0.000245 0.0
1.003438 -0.000236 0.0
1.003462 -0.000233 0.0
1.003481 -0.000238 0.0
1.003494 -0.000251 0.0
1.003500 -0.000273 0.0
1.003495 -0.000304 0.0
1.003478 -0.000342 0.0
1.003445 -0.000386 0.0
1.000671 -0.013531 0.0
1.003519 -0.041975 0.0
1.009811 -0.073193 0.0
1.020768 -0.108547 0.0
1.038462 -0.149237 0.0
1.066117 -0.195905 0.0
1.108379 -0.247852 0.0
1.170265 -0.299662 0.0
1.261528 -0.354132 0.0
1.356507 -0.334164 0.0
1.420179 -0.287416 0.0
1.457572 -0.240521 0.0
1.481361 -0.199596 0.0
1.501364 -0.163722 0.0
1.523790 -0.127442 0.0
1.549402 -0.082109 0.0
1.571196 -0.021651 0.0
1.579166 0.047321 0.0
1.568560 0.115233 0.0
1.540500 0.174972 0.0
1.498774 0.222366 0.0
1.447861 0.255975 0.0
1.391826 0.276178 0.0
1.333917 0.284352 0.0
1.276523 0.282282 0.0
1.221302 0.271849 0.0
1.169357 0.254948 0.0
1.121395 0.233498 0.0
1.077842 0.209396 0.0
1.038941 0.184356 0.0
1.004811 0.159671 0.0
0.975508 0.136068 0.0
0.951050 0.113765 0.0
0.931408 0.092702 0.0
0.916474 0.072795 0.0
0.906028 0.054087 0.0
0.899721 0.036773 0.0
0.897081 0.021128 0.0
0.897547 0.007426 0.0
0.900501 -0.004136 0.0
0.905323 -0.013496 0.0
0.911432 -0.020708 0.0
0.918318 -0.025930 0.0
0.925555 -0.029390 0.0
0.932810 -0.031357 0.0
0.939842 -0.032113 0.0
0.946489 -0.031927 0.0
0.952655 -0.031039 0.0
0.958294 -0.029658 0.0
0.963398 -0.027954 0.0
0.967980 -0.026062 0.0
0.972072 -0.024085 0.0
0.975712 -0.022101 0.0
0.978941 -0.020162 0.0
0.981800 -0.018305 0.0
0.984329 -0.016553 0.0
0.986566 -0.014921 0.0
0.988542 -0.013413 0.0
0.990290 -0.012029 0.0
0.991834 -0.010768 0.0
0.993199 -0.009624 0.0
0.994407 -0.008589 0.0
0.995474 -0.007657 0.0
0.996419 -0.006819 0.0
0.997254 -0.006068 0.0
0.997993 -0.005395 0.0
0.998647 -0.004794 0.0
0.999226 -0.004258 0.0
0.999738 -0.003780 0.0
1.000191 -0.003354 0.0
1.000593 -0.002975 0.0
1.000947 -0.002638 0.0
1.001262 -0.002339 0.0
1.001540 -0.002073 0.0
1.001786 -0.001837 0.0
1.002003 -0.001628 0.0
1.002196 -0.001442 0.0
1.002366 -0.001277 0.0
1.002517 -0.001131 0.0
1.002650 -0.001002 0.0
1.002768 -0.000888 0.0
1.002872 -0.000786 0.0
1.002964 -0.000697 0.0
1.003046 -0.000618 0.0
1.003117 -0.000549 0.0
1.003180 -0.000489 0.0
1.003236 -0.000436 0.0
1.003285 -0.000390 0.0
1.003328 -0.000351 0.0
1.003365 -0.000319 0.0
1.003397 -0.000293 0.0
1.003424 -0.000273 0.0
1.003446 -0.000259 0.0
1.003464 -0.000251 0.0
1.003475 -0.000251 0.0
1.003481 -0.000257 0.0
1.003478 -0.000270 0.0
1.003467 -0.000290 0.0
1.003445 -0.000316 0.0
1.003410 -0.000346 0.0
1.000288 -0.014490 0.0
1.001581 -0.045156 0.0
1.004705 -0.079428 0.0
1.010848 -0.119412 0.0
1.022248 -0.167466 0.0
1.042969 -0.226053 0.0
1.080185 -0.297182 0.0
1.144610 -0.376644 0.0
1.265119 -0.488922 0.0
1.376123 -0.405356 0.0
1.409834 -0.313608 0.0
1.406522 -0.248409 0.0
1.393755 -0.202730 0.0
1.384705 -0.171543 0.0
1.389367 -0.146709 0.0
1.413658 -0.112745 0.0
1.451452 -0.050603 0.0
1.481358 0.038397 0.0
1.488053 0.128069 0.0
1.472594 0.205654 0.0
1.440410 0.265594 0.0
1.397252 0.306819 0.0
1.347873 0.330748 0.0
1.295726 0.339838 0.0
1.243178 0.336738 0.0
1.191830 0.323961 0.0
1.142765 0.303845 0.0
1.096721 0.278608 0.0
1.054219 0.250341 0.0
1.015665 0.220866 0.0
0.981435 0.191523 0.0
0.951890 0.163063 0.0
0.927357 0.135761 0.0
0.908044 0.109661 0.0
0.893976 0.084837 0.0
0.884957 0.061510 0.0
0.880575 0.040039 0.0
0.880245 0.020832 0.0
0.883251 0.004251 0.0
0.888825 -0.009488 0.0
0.896213 -0.020353 0.0
0.904719 -0.028466 0.0
0.913740 -0.034079 0.0
0.922798 -0.037535 0.0
0.931543 -0.039212 0.0
0.939742 -0.039490 0.0
0.947263 -0.038718 0.0
0.954051 -0.037201 0.0
0.960104 -0.035188 0.0
0.965456 -0.032879 0.0
0.970160 -0.030424 0.0
0.974279 -0.027935 0.0
0.977880 -0.025491 0.0
0.981024 -0.023144 0.0
0.983769 -0.020927 0.0
0.986168 -0.018859 0.0
0.988266 -0.016949 0.0
0.990103 -0.015198 0.0
0.991713 -0.013602 0.0
0.993126 -0.012154 0.0
0.994368 -0.010845 0.0
0.995460 -0.009667 0.0
0.996421 -0.008608 0.0
0.997268 -0.007659 0.0
0.998014 -0.006810 0.0
0.998673 -0.006051 0.0
0.999254 -0.005374 0.0
0.999767 -0.004770 0.0
1.000220 -0.004233 0.0
1.000620 -0.003755 0.0
1.000973 -0.003329 0.0
1.001286 -0.002952 0.0
1.001562 -0.002616 0.0
1.001806 -0.002318 0.0
1.002022 -0.002054 0.0
1.002213 -0.001819 0.0
1.002382 -0.001611 0.0
1.002531 -0.001427 0.0
1.002663 -0.001264 0.0
1.002780 -0.001119 0.0
1.002883 -0.000991 0.0
1.002973 -0.000878 0.0
1.003054 -0.000778 0.0
1.003124 -0.000690 0.0
1.003186 -0.000612 0.0
1.003241 -0.000544 0.0
1.003289 -0.000484 0.0
1.003330 -0.000432 0.0
1.003366 -0.000388 0.0
1.003397 -0.000350 0.0
1.003423 -0.000319 0.0
1.003444 -0.000294 0.0
1.003460 -0.000275 0.0
1.003470 -0.000263 0.0
1.003476 -0.000256 0.0
1.003475 -0.000256 0.0
1.003466 -0.000261 0.0
1.003450 -0.000272 0.0
1.003424 -0.000286 0.0
1.003387 -0.000304 0.0
0.999778 -0.014556 0.0
0.998968 -0.045572 0.0
0.997643 -0.080812 0.0
0.996516 -0.123044 0.0
0.997187 -0.175905 0.0
1.003266 -0.244415 0.0
1.023003 -0.335773 0.0
1.074280 -0.453754 0.0
1.220777 -0.678818 0.0
1.317558 -0.423246 0.0
1.262151 -0.274021 0.0
1.183793 -0.206326 0.0
1.116573 -0.164827 0.0
1.062204 -0.146027 0.0
1.033076 -0.147758 0.0
1.045874 -0.148784 0.0
1.100850 -0.107333 0.0
1.171146 -0.005076 0.0
1.221945 0.114047 0.0
1.242936 0.214143 0.0
1.242817 0.289409 0.0
1.228642 0.340336 0.0
1.205195 0.370057 0.0
1.175606 0.382265 0.0
1.142072 0.380394 0.0
1.106261 0.367465 0.0
1.069510 0.346156 0.0
1.032941 0.318909 0.0
0.997548 0.287936 0.0
0.964279 0.255093 0.0
0.934084 0.221721 0.0
0.907880 0.188613 0.0
0.886450 0.156174 0.0
0.870322 0.124688 0.0
0.859686 0.094514 0.0
0.854385 0.066154 0.0
0.853961 0.040202 0.0
0.857719 0.017242 0.0
0.864806 -0.002253 0.0
0.874318 -0.018071 0.0
0.885367 -0.030207 0.0
0.897130 -0.038880 0.0
0.908926 -0.044483 0.0
0.920251 -0.047513 0.0
0.930768 -0.048495 0.0
0.940294 -0.047931 0.0
0.948759 -0.046264 0.0
0.956177 -0.043862 0.0
0.962614 -0.041016 0.0
0.968161 -0.037949 0.0
0.972923 -0.034820 0.0
0.977005 -0.031741 0.0
0.980504 -0.028784 0.0
0.983505 -0.025996 0.0
0.986085 -0.023400 0.0
0.988307 -0.021008 0.0
0.990227 -0.018819 0.0
0.991890 -0.016828 0.0
0.993334 -0.015026 0.0
0.994590 -0.013400 0.0
0.995686 -0.011937 0.0
0.996644 -0.010625 0.0
0.997482 -0.009450 0.0
0.998217 -0.008399 0.0
0.998862 -0.007461 0.0
0.999429 -0.006625 0.0
0.999928 -0.005880 0.0
1.000367 -0.005216 0.0
1.000754 -0.004626 0.0
1.001095 -0.004102 0.0
1.001396 -0.003636 0.0
1.001661 -0.003223 0.0
1.001895 -0.002855 0.0
1.002102 -0.002530 0.0
1.002284 -0.002241 0.0
1.002446 -0.001984 0.0
1.002588 -0.001757 0.0
1.002714 -0.001556 0.0
1.002825 -0.001378 0.0
1.002923 -0.001220 0.0
1.003009 -0.001080 0.0
1.003085 -0.000956 0.0
1.003153 -0.000847 0.0
1.003211 -0.000750 0.0
1.003263 -0.000665 0.0
1.003308 -0.000590 0.0
1.003347 -0.000525 0.0
1.003381 -0.000467 0.0
1.003410 -0.000418 0.0
1.003434 -0.000375 0.0
1.003453 -0.000339 0.0
1.003468 -0.000310 0.0
1.003478 -0.000286 0.0
1.003483 -0.000268 0.0
1.003482 -0.000256 0.0
1.003476 -0.000249 0.0
1.003463 -0.000247 0.0
1.003442 -0.000249 0.0
1.003413 -0.000254 0.0
1.003375 -0.000262 0.0
0.999198 -0.013532 0.0
0.995966 -0.042554 0.0
0.989371 -0.075911 0.0
0.979156 -0.116603 0.0
0.965115 -0.168975 0.0
0.947736 -0.240044 0.0
0.930405 -0.342549 0.0
0.927724 -0.495575 0.0
1.023540 -0.879309 0.0
1.012733 -0.205045 0.0
0.807530 -0.115885 0.0
0.649745 -0.116277 0.0
0.547670 -0.085582 0.0
0.463692 -0.086925 0.0
0.435474 -0.149515 0.0
0.485936 -0.210289 0.0
0.582504 -0.197371 0.0
0.695489 -0.098317 0.0
0.798036 0.053942 0.0
0.870219 0.181074 0.0
0.918557 0.274260 0.0
0.950174 0.338042 0.0
0.968340 0.377633 0.0
0.975098 0.397520 0.0
0.972303 0.401468 0.0
0.961814 0.392691 0.0
0.945480 0.374015 0.0
0.925119 0.347981 0.0
0.902533 0.316844 0.0
0.879527 0.282461 0.0
0.857871 0.246205 0.0
0.839186 0.209019 0.0
0.824769 0.171614 0.0
0.815460 0.134686 0.0
0.811579 0.099033 0.0
0.812970 0.065544 0.0
0.819096 0.035109 0.0
0.829153 0.008520 0.0
0.842216 -0.013681 0.0
0.857267 -0.031206 0.0
0.873240 -0.044093 0.0
0.889196 -0.052713 0.0
0.904416 -0.057666 0.0
0.918416 -0.059655 0.0
0.930932 -0.059388 0.0
0.941876 -0.057509 0.0
0.951286 -0.054561 0.0
0.959277 -0.050974 0.0
0.966007 -0.047071 0.0
0.971648 -0.043083 0.0
0.976367 -0.039167 0.0
0.980315 -0.035423 0.0
0.983624 -0.031909 0.0
0.986408 -0.028655 0.0
0.988757 -0.025670 0.0
0.990749 -0.022952 0.0
0.992446 -0.020491 0.0
0.993896 -0.018270 0.0
0.995142 -0.016273 0.0
0.996215 -0.014482 0.0
0.997143 -0.012879 0.0
0.997947 -0.011446 0.0
0.998647 -0.010167 0.0
0.999256 -0.009027 0.0
0.999789 -0.008011 0.0
1.000254 -0.007107 0.0
1.000662 -0.006304 0.0
1.001020 -0.005589 0.0
1.001334 -0.004955 0.0
1.001610 -0.004391 0.0
1.001853 -0.003891 0.0
1.002067 -0.003447 0.0
1.002255 -0.003054 0.0
1.002421 -0.002704 0.0
1.002568 -0.002395 0.0
1.002697 -0.002121 0.0
1.002811 -0.001877 0.0
1.002911 -0.001662 0.0
1.002999 -0.001471 0.0
1.003077 -0.001302 0.0
1.003146 -0.001153 0.0
1.003207 -0.001020 0.0
1.003260 -0.000903 0.0
1.003306 -0.000799 0.0
1.003346 -0.000708 0.0
1.003382 -0.000627 0.0
1.003412 -0.000557 0.0
1.003437 -0.000495 0.0
1.003458 -0.000440 0.0
1.003475 -0.000393 0.0
1.003488 -0.000353 0.0
1.003497 -0.000319 0.0
1.003501 -0.000291 0.0
1.003501 -0.000268 0.0
1.003495 -0.000250 0.0
1.003484 -0.000237 0.0
1.003466 -0.000228 0.0
1.003442 -0.000223 0.0
1.003411 -0.000220 0.0
1.003371 -0.000219 0.0
0.998655 -0.011385 0.0
0.993141 -0.035955 0.0
0.981506 -0.064280 0.0
0.962331 -0.098843 0.0
0.932945 -0.143308 0.0
0.888429 -0.203816 0.0
0.819097 -0.292114 0.0
0.706944 -0.431176 0.0
0.318641 -0.754905 0.0
-0.456223 0.272614 0.0
-0.456223 0.000000 0.0
-0.043992 -0.031167 0.0
-0.079820 -0.045613 0.0
-0.032954 -0.089781 0.0
0.052689 -0.204083 0.0
0.141114 -0.294608 0.0
0.218428 -0.286935 0.0
0.298997 -0.202307 0.0
0.395772 -0.041391 0.0
0.490411 0.109585 0.0
0.570877 0.216945 0.0
0.640326 0.294289 0.0
0.696290 0.347256 0.0
0.737899 0.379529 0.0
0.765836 0.394316 0.0
0.781654 0.394515 0.0
0.787397 0.382784 0.0
0.785404 0.361565 0.0
0.778210 0.333040 0.0
0.768425 0.299055 0.0
0.758564 0.261127 0.0
0.750796 0.220550 0.0
0.746733 0.178564 0.0
0.747315 0.136463 0.0
0.752863 0.095588 0.0
0.763231 0.057230 0.0
0.777996 0.022533 0.0
0.796485 -0.007449 0.0
0.817556 -0.031846 0.0
0.839749 -0.050284 0.0
0.861744 -0.062983 0.0
0.882552 -0.070588 0.0
0.901525 -0.073983 0.0
0.918313 -0.074124 0.0
0.932801 -0.071923 0.0
0.945054 -0.068171 0.0
0.955253 -0.063506 0.0
0.963641 -0.058408 0.0
0.970489 -0.053214 0.0
0.976056 -0.048148 0.0
0.980579 -0.043344 0.0
0.984261 -0.038876 0.0
0.987271 -0.034775 0.0
0.989743 -0.031045 0.0
0.991787 -0.027674 0.0
0.993487 -0.024641 0.0
0.994910 -0.021921 0.0
0.996108 -0.019488 0.0
0.997122 -0.017315 0.0
0.997985 -0.015376 0.0
0.998723 -0.013650 0.0
0.999356 -0.012112 0.0
0.999901 -0.010745 0.0
1.000373 -0.009529 0.0
1.000782 -0.008449 0.0
1.001137 -0.007490 0.0
1.001446 -0.006638 0.0
1.001716 -0.005882 0.0
1.001952 -0.005212 0.0
1.002158 -0.004617 0.0
1.002339 -0.004089 0.0
1.002498 -0.003622 0.0
1.002638 -0.003207 0.0
1.002760 -0.002840 0.0
1.002868 -0.002514 0.0
1.002963 -0.002225 0.0
1.003046 -0.001970 0.0
1.003120 -0.001743 0.0
1.003185 -0.001543 0.0
1.003241 -0.001365 0.0
1.003291 -0.001208 0.0
1.003335 -0.001069 0.0
1.003373 -0.000946 0.0
1.003406 -0.000837 0.0
1.003435 -0.000740 0.0
1.003460 -0.000655 0.0
1.003480 -0.000580 0.0
1.003497 -0.000514 0.0
1.003511 -0.000456 0.0
1.003521 -0.000405 0.0
1.003527 -0.000361 0.0
1.003530 -0.000323 0.0
1.003529 -0.000290 0.0
1.003524 -0.000263 0.0
1.003513 -0.000240 0.0
1.003498 -0.000221 0.0
1.003477 -0.000206 0.0
1.003450 -0.000193 0.0
1.003416 -0.000184 0.0
1.003375 -0.000175 0.0
0.998271 -0.008311 0.0
0.991149 -0.026393 0.0
0.975993 -0.047050 0.0
0.950670 -0.071575 0.0
0.911085 -0.101605 0.0
0.849376 -0.139294 0.0
0.749271 -0.187200 0.0
0.572380 -0.247046 0.0
0.228956 -0.307660 0.0
0.000000 0.272614 0.0
-0.000000 -0.000000 0.0
0.000000 0.000000 0.0
-0.028590 -0.026888 0.0
-0.066545 -0.119118 0.0
-0.073753 -0.253182 0.0
-0.075702 -0.331984 0.0
-0.079559 -0.323016 0.0
-0.052752 -0.273601 0.0
0.032660 -0.152285 0.0
0.149500 0.009000 0.0
0.258385 0.128180 0.0
0.354383 0.217607 0.0
0.437060 0.285299 0.0
0.504328 0.332609 0.0
0.556097 0.361529 0.0
0.593435 0.374145 0.0
0.618292 0.372554 0.0
0.633267 0.358812 0.0
0.641372 0.334882 0.0
0.645740 0.302630 0.0
0.649260 0.263893 0.0
0.654268 0.220543 0.0
0.662399 0.174503 0.0
0.674679 0.127662 0.0
0.691735 0.081785 0.0
0.713933 0.038467 0.0
0.740900 -0.000436 0.0
0.770839 -0.032908 0.0
0.801389 -0.058008 0.0
0.830826 -0.075752 0.0
0.858108 -0.086792 0.0
0.882656 -0.092135 0.0
0.904199 -0.092952 0.0
0.922683 -0.090427 0.0
0.938217 -0.085643 0.0
0.951027 -0.079514 0.0
0.961419 -0.072753 0.0
0.969739 -0.065870 0.0
0.976338 -0.059199 0.0
0.981544 -0.052937 0.0
0.985647 -0.047181 0.0
0.988886 -0.041961 0.0
0.991456 -0.037270 0.0
0.993509 -0.033076 0.0
0.995161 -0.029339 0.0
0.996502 -0.026016 0.0
0.997599 -0.023065 0.0
0.998503 -0.020446 0.0
0.999253 -0.018121 0.0
0.999880 -0.016060 0.0
1.000407 -0.014231 0.0
1.000852 -0.012609 0.0
1.001230 -0.011172 0.0
1.001552 -0.009897 0.0
1.001828 -0.008767 0.0
1.002065 -0.007765 0.0
1.002270 -0.006877 0.0
1.002446 -0.006090 0.0
1.002599 -0.005393 0.0
1.002732 -0.004775 0.0
1.002848 -0.004228 0.0
1.002949 -0.003743 0.0
1.003037 -0.003313 0.0
1.003114 -0.002933 0.0
1.003182 -0.002596 0.0
1.003241 -0.002297 0.0
1.003293 -0.002033 0.0
1.003338 -0.001799 0.0
1.003378 -0.001592 0.0
1.003412 -0.001408 0.0
1.003443 -0.001245 0.0
1.003469 -0.001101 0.0
1.003492 -0.000974 0.0
1.003511 -0.000861 0.0
1.003528 -0.000761 0.0
1.003542 -0.000673 0.0
1.003553 -0.000594 0.0
1.003561 -0.000525 0.0
1.003567 -0.000464 0.0
1.003570 -0.000410 0.0
1.003570 -0.000363 0.0
1.003568 -0.000321 0.0
1.003561 -0.000284 0.0
1.003551 -0.000253 0.0
1.003537 -0.000225 0.0
1.003518 -0.000201 0.0
1.003494 -0.000180 0.0
1.003464 -0.000162 0.0
1.003428 -0.000146 0.0
1.003386 -0.000130 0.0
0.998126 -0.004708 0.0
0.990408 -0.015156 0.0
0.974040 -0.026763 0.0
0.946955 -0.039456 0.0
0.905490 -0.052673 0.0
0.843642 -0.064669 0.0
0.752155 -0.070234 0.0
0.620289 -0.055255 0.0
0.447841 0.019755 0.0
0.176358 0.158883 0.0
0.000000 0.000000 0.0
-0.000000 -0.000000 0.0
0.000000 0.000000 0.0
-0.055807 -0.054877 0.0
-0.146680 -0.220273 0.0
-0.216279 -0.293344 0.0
-0.274504 -0.299574 0.0
-0.296137 -0.302217 0.0
-0.257372 -0.247845 0.0
-0.144081 -0.125571 0.0
0.001399 0.008385 0.0
0.121784 0.121018 0.0
0.218311 0.202684 0.0
0.300879 0.265389 0.0
0.368240 0.309619 0.0
0.420771 0.336186 0.0
0.460180 0.346247 0.0
0.489120 0.341205 0.0
0.510802 0.322701 0.0
0.528576 0.292670 0.0
0.545549 0.253359 0.0
0.564382 0.207235 0.0
0.587257 0.156805 0.0
0.615873 0.104465 0.0
0.651219 0.052580 0.0
0.692095 0.004598 0.0
0.734466 -0.035906 0.0
0.774665 -0.067576 0.0
0.811231 -0.090456 0.0
0.843744 -0.105255 0.0
0.872199 -0.113026 0.0
0.896763 -0.115011 0.0
0.917674 -0.112530 0.0
0.935212 -0.106872 0.0
0.949686 -0.099206 0.0
0.961432 -0.090507 0.0
0.970807 -0.081527 0.0
0.978174 -0.072784 0.0
0.983891 -0.064600 0.0
0.988284 -0.057136 0.0
0.991642 -0.050443 0.0
0.994206 -0.044503 0.0
0.996169 -0.039261 0.0
0.997678 -0.034647 0.0
0.998848 -0.030590 0.0
0.999761 -0.027020 0.0
1.000481 -0.023877 0.0