# vtk DataFile Version 3.0
Vector Field
ASCII
DATASET RECTILINEAR_GRID
DIMENSIONS 200 50 1
X_COORDINATES 200 double
0.050000 0.150000 0.250000 0.350000 0.450000 0.550000 0.650000 0.750000 0.850000 0.950000 1.050000 1.150000 1.250000 1.350000 1.450000 1.550000 1.650000 1.750000 1.850000 1.950000 2.050000 2.150000 2.250000 2.350000 2.450000 2.550000 2.650000 2.750000 2.850000 2.950000 3.050000 3.150000 3.250000 3.350000 3.450000 3.550000 3.650000 3.750000 3.850000 3.950000 4.050000 4.150000 4.250000 4.350000 4.450000 4.550000 4.650000 4.750000 4.850000 4.950000 5.050000 5.150000 5.250000 5.350000 5.450000 5.550000 5.650000 5.750000 5.850000 5.950000 6.050000 6.150000 6.250000 6.350000 6.450000 6.550000 6.650000 6.750000 6.850000 6.950000 7.050000 7.150000 7.250000 7.350000 7.450000 7.550000 7.650000 7.750000 7.850000 7.950000 8.050000 8.150000 8.250000 8.350000 8.450000 8.550000 8.650000 8.750000 8.850000 8.950000 9.050000 9.150000 9.250000 9.350000 9.450000 9.550000 9.650000 9.750000 9.850000 9.950000 10.050000 10.150000 10.250000 10.350000 10.450000 10.550000 10.650000 10.750000 10.850000 10.950000 11.050000 11.150000 11.250000 11.350000 11.450000 11.550000 11.650000 11.750000 11.850000 11.950000 12.050000 12.150000 12.250000 12.350000 12.450000 12.550000 12.650000 12.750000 12.850000 12.950000 13.050000 13.150000 13.250000 13.350000 13.450000 13.550000 13.650000 13.750000 13.850000 13.950000 14.050000 14.150000 14.250000 14.350000 14.450000 14.550000 14.650000 14.750000 14.850000 14.950000 15.050000 15.150000 15.250000 15.350000 15.450000 15.550000 15.650000 15.750000 15.850000 15.950000 16.050000 16.150000 16.250000 16.350000 16.450000 16.550000 16.650000 16.750000 16.850000 16.950000 17.050000 17.150000 17.250000 17.350000 17.450000 17.550000 17.650000 17.750000 17.850000 17.950000 18.050000 18.150000 18.250000 18.350000 18.450000 18.550000 18.650000 18.750000 18.850000 18.950000 19.050000 19.150000 19.250000 19.350000 19.450000 19.550000 19.650000 19.750000 19.850000 19.950000 
Y_COORDINATES 50 double
0.050000 0.150000 0.250000 0.350000 0.450000 0.550000 0.650000 0.750000 0.850000 0.950000 1.050000 1.150000 1.250000 1.350000 1.450000 1.550000 1.650000 1.750000 1.850000 1.950000 2.050000 2.150000 2.250000 2.350000 2.450000 2.550000 2.650000 2.750000 2.850000 2.950000 3.050000 3.150000 3.250000 3.350000 3.450000 3.550000 3.650000 3.750000 3.850000 3.950000 4.050000 4.150000 4.250000 4.350000 4.450000 4.550000 4.650000 4.750000 4.850000 4.950000 
Z_COORDINATES 1 double
0.0
POINT_DATA 10000
VECTORS Vektorfeld double
0.996417 0.003583 0.0
0.986630 0.006204 0.0
0.973109 0.007317 0.0
0.957939 0.007853 0.0
0.941953 0.008133 0.0
0.925535 0.008285 0.0
0.908888 0.008363 0.0
0.892129 0.008397 0.0
0.875330 0.008402 0.0
0.858538 0.008390 0.0
0.841782 0.008366 0.0
0.825079 0.008337 0.0
0.808438 0.008305 0.0
0.791861 0.008272 0.0
0.775346 0.008242 0.0
0.758888 0.008216 0.0
0.742479 0.008194 0.0
0.726108 0.008177 0.0
0.709762 0.008168 0.0
0.693425 0.008168 0.0
0.677078 0.008179 0.0
0.660693 0.008205 0.0
0.644240 0.008249 0.0
0.627674 0.008317 0.0
0.610943 0.008415 0.0
0.593974 0.008554 0.0
0.576676 0.008744 0.0
0.558930 0.009002 0.0
0.540581 0.009347 0.0
0.521425 0.009808 0.0
0.501195 0.010422 0.0
0.479533 0.011240 0.0
0.455964 0.012329 0.0
0.429853 0.013782 0.0
0.400352 0.015718 0.0
0.366348 0.018285 0.0
0.326413 0.021651 0.0
0.278790 0.025972 0.0
0.221506 0.031312 0.0
0.152727 0.037466 0.0
0.071467 0.043795 0.0
-0.018393 0.046065 0.0
-0.083207 0.018749 0.0
-0.050978 -0.050978 0.0
0.500000 0.050974 0.0
1.000000 0.000000 0.0
1.000000 0.000000 0.0
1.000000 0.000000 0.0
1.000000 0.000000 0.0
1.000000 0.000000 0.0
0.500000 0.034317 0.0
0.034356 -0.034356 0.0
0.087484 -0.018773 0.0
0.112579 -0.006322 0.0
0.116367 0.002534 0.0
0.115905 -0.002072 0.0
0.119684 -0.001708 0.0
0.098320 0.023071 0.0
0.034574 0.040675 0.0
-0.054196 0.048096 0.0
-0.155582 0.053290 0.0
-0.266621 0.057749 0.0
-0.385586 0.061216 0.0
-0.510179 0.063378 0.0
-0.637300 0.063743 0.0
-0.762859 0.061816 0.0
-0.881908 0.057234 0.0
-0.989034 0.049892 0.0
-1.078978 0.040052 0.0
-1.147399 0.028369 0.0
-1.191569 0.015801 0.0
-1.210760 0.003389 0.0
-1.205998 -0.008151 0.0
-1.180236 -0.017611 0.0
-1.138372 -0.024253 0.0
-1.085917 -0.028202 0.0
-1.027803 -0.029912 0.0
-0.967974 -0.029917 0.0
-0.909337 -0.028720 0.0
-0.853877 -0.026740 0.0
-0.802828 -0.024309 0.0
-0.756843 -0.021676 0.0
-0.716146 -0.019021 0.0
-0.680659 -0.016466 0.0
-0.650097 -0.014096 0.0
-0.624041 -0.011960 0.0
-0.601994 -0.010086 0.0
-0.583426 -0.008482 0.0
-0.567800 -0.007144 0.0
-0.554600 -0.006056 0.0
-0.543350 -0.005194 0.0
-0.533622 -0.004534 0.0
-0.525042 -0.004046 0.0
-0.517290 -0.003706 0.0
-0.510098 -0.003486 0.0
-0.503244 -0.003368 0.0
-0.496545 -0.003331 0.0
-0.489852 -0.003362 0.0
-0.483042 -0.003447 0.0
-0.476021 -0.003574 0.0
-0.468718 -0.003729 0.0
-0.461083 -0.003905 0.0
-0.453086 -0.004093 0.0
-0.444704 -0.004288 0.0
-0.435930 -0.004486 0.0
-0.426764 -0.004680 0.0
-0.417221 -0.004863 0.0
-0.407334 -0.005025 0.0
-0.397152 -0.005157 0.0
-0.386747 -0.005247 0.0
-0.376215 -0.005285 0.0
-0.365669 -0.005260 0.0
-0.355243 -0.005165 0.0
-0.345084 -0.004994 0.0
-0.335345 -0.004745 0.0
-0.326182 -0.004418 0.0
-0.317746 -0.004018 0.0
-0.310176 -0.003552 0.0
-0.303594 -0.003030 0.0
-0.298102 -0.002463 0.0
-0.293773 -0.001866 0.0
-0.290655 -0.001253 0.0
-0.288763 -0.000640 0.0
-0.288077 -0.000046 0.0
-0.288535 0.000504 0.0
-0.290041 0.001002 0.0
-0.292488 0.001446 0.0
-0.295767 0.001833 0.0
-0.299756 0.002156 0.0
-0.304323 0.002410 0.0
-0.309323 0.002590 0.0
-0.314609 0.002695 0.0
-0.320027 0.002724 0.0
-0.325430 0.002679 0.0
-0.330673 0.002564 0.0
-0.335622 0.002385 0.0
-0.340158 0.002150 0.0
-0.344175 0.001867 0.0
-0.347588 0.001546 0.0
-0.350330 0.001196 0.0
-0.352352 0.000827 0.0
-0.353628 0.000450 0.0
-0.354158 0.000080 0.0
-0.353969 -0.000270 0.0
-0.353112 -0.000588 0.0
-0.351659 -0.000864 0.0
-0.349703 -0.001092 0.0
-0.347346 -0.001265 0.0
-0.344700 -0.001381 0.0
-0.341882 -0.001437 0.0
-0.339011 -0.001434 0.0
-0.336201 -0.001375 0.0
-0.333562 -0.001264 0.0
-0.331192 -0.001107 0.0
-0.329174 -0.000912 0.0
-0.327574 -0.000688 0.0
-0.326440 -0.000447 0.0
-0.325796 -0.000198 0.0
-0.325644 0.000046 0.0
-0.325965 0.000274 0.0
-0.326715 0.000476 0.0
-0.327834 0.000642 0.0
-0.329238 0.000762 0.0
-0.330829 0.000829 0.0
-0.332497 0.000839 0.0
-0.334123 0.000787 0.0
-0.335585 0.000675 0.0
-0.336767 0.000506 0.0
-0.337558 0.000285 0.0
-0.337864 0.000020 0.0
-0.337604 -0.000280 0.0
-0.336718 -0.000606 0.0
-0.335166 -0.000946 0.0
-0.332932 -0.001288 0.0
-0.330022 -0.001622 0.0
-0.326464 -0.001936 0.0
-0.322310 -0.002219 0.0
-0.317627 -0.002464 0.0
-0.312498 -0.002664 0.0
-0.307019 -0.002815 0.0
-0.301289 -0.002915 0.0
-0.295412 -0.002962 0.0
-0.289492 -0.002957 0.0
-0.283632 -0.002903 0.0
-0.277929 -0.002801 0.0
-0.272468 -0.002659 0.0
-0.267327 -0.002482 0.0
-0.262568 -0.002278 0.0
-0.258235 -0.002054 0.0
-0.254362 -0.001819 0.0
-0.250967 -0.001577 0.0
-0.248060 -0.001330 0.0
-0.245650 -0.001080 0.0
-0.243739 -0.000831 0.0
-0.242320 -0.000588 0.0
-0.241373 -0.000360 0.0
-0.240845 -0.000167 0.0
-0.240625 -0.000053 0.0
-0.240490 -0.000082 0.0
-0.240179 -0.000229 0.0
1.001713 0.005453 0.0
1.005188 0.010647 0.0
1.008182 0.013402 0.0
1.010102 0.015017 0.0
1.011011 0.016046 0.0
1.011057 0.016744 0.0
1.010367 0.017240 0.0
1.009042 0.017604 0.0
1.007154 0.017882 0.0
1.004757 0.018100 0.0
1.001891 0.018279 0.0
0.998585 0.018433 0.0
0.994861 0.018574 0.0
0.990732 0.018709 0.0
0.986207 0.018845 0.0
0.981293 0.018986 0.0
0.975990 0.019136 0.0
0.970298 0.019299 0.0
0.964212 0.019479 0.0
0.957724 0.019682 0.0
0.950822 0.019916 0.0
0.943484 0.020190 0.0
0.935685 0.020517 0.0
0.927387 0.020913 0.0
0.918539 0.021399 0.0
0.909074 0.022004 0.0
0.898902 0.022764 0.0
0.887906 0.023725 0.0
0.875929 0.024950 0.0
0.862765 0.026525 0.0
0.848137 0.028564 0.0
0.831675 0.031222 0.0
0.812878 0.034713 0.0
0.791065 0.039323 0.0
0.765314 0.045430 0.0
0.734377 0.053514 0.0
0.696589 0.064146 0.0
0.649782 0.077907 0.0
0.591283 0.095160 0.0
0.518203 0.115476 0.0
0.428860 0.136388 0.0
0.325323 0.146869 0.0
0.203570 0.104513 0.0
0.068277 -0.033678 0.0
0.500000 0.033646 0.0
1.000000 0.000000 0.0
1.000000 0.000000 0.0
1.000000 0.000000 0.0
1.000000 0.000000 0.0
1.000000 0.000000 0.0
0.500000 0.096286 0.0
0.027685 -0.096397 0.0
0.070255 -0.052430 0.0
0.092779 -0.020283 0.0
0.083456 0.022031 0.0
0.027421 0.034928 0.0
-0.059649 0.044583 0.0
-0.146867 0.085362 0.0
-0.225427 0.120690 0.0
-0.310203 0.141627 0.0
-0.407344 0.158285 0.0
-0.515981 0.172430 0.0
-0.633661 0.183180 0.0
-0.757123 0.189469 0.0
-0.882228 0.189878 0.0
-1.003981 0.182993 0.0
-1.116703 0.167828 0.0
-1.214484 0.144205 0.0
-1.291839 0.113038 0.0
-1.344444 0.076409 0.0
-1.369834 0.037322 0.0
-1.367983 -0.000791 0.0
-1.342301 -0.034415 0.0
-1.298973 -0.060437 0.0
-1.244288 -0.077977 0.0
-1.183452 -0.087769 0.0
-1.120638 -0.091274 0.0
-1.058930 -0.090093 0.0
-1.000439 -0.085672 0.0
-0.946484 -0.079202 0.0
-0.897772 -0.071608 0.0
-0.854567 -0.063569 0.0
-0.816820 -0.055571 0.0
-0.784273 -0.047949 0.0
-0.756527 -0.040921 0.0
-0.733096 -0.034622 0.0
-0.713444 -0.029122 0.0
-0.697019 -0.024439 0.0
-0.683277 -0.020555 0.0
-0.671700 -0.017420 0.0
-0.661817 -0.014963 0.0
-0.653208 -0.013102 0.0
-0.645513 -0.011753 0.0
-0.638428 -0.010835 0.0
-0.631704 -0.010272 0.0
-0.625141 -0.009999 0.0
-0.618582 -0.009959 0.0
-0.611904 -0.010106 0.0
-0.605016 -0.010401 0.0
-0.597854 -0.010804 0.0
-0.590375 -0.011282 0.0
-0.582553 -0.011809 0.0
-0.574369 -0.012370 0.0
-0.565812 -0.012950 0.0
-0.556877 -0.013534 0.0
-0.547566 -0.014108 0.0
-0.537894 -0.014649 0.0
-0.527890 -0.015131 0.0
-0.517598 -0.015525 0.0
-0.507085 -0.015797 0.0
-0.496436 -0.015918 0.0
-0.485752 -0.015857 0.0
-0.475152 -0.015594 0.0
-0.464765 -0.015112 0.0
-0.454725 -0.014406 0.0
-0.445168 -0.013477 0.0
-0.436222 -0.012340 0.0
-0.428008 -0.011014 0.0
-0.420628 -0.009529 0.0
-0.414168 -0.007917 0.0
-0.408689 -0.006219 0.0
-0.404230 -0.004476 0.0
-0.400804 -0.002734 0.0
-0.398403 -0.001038 0.0
-0.397013 0.000565 0.0
-0.396604 0.002038 0.0
-0.397105 0.003357 0.0
-0.398407 0.004503 0.0
-0.400387 0.005455 0.0
-0.402903 0.006194 0.0
-0.405804 0.006708 0.0
-0.408933 0.006992 0.0
-0.412133 0.007045 0.0
-0.415246 0.006874 0.0
-0.418126 0.006492 0.0
-0.420636 0.005917 0.0
-0.422652 0.005172 0.0
-0.424073 0.004284 0.0
-0.424814 0.003283 0.0
-0.424812 0.002198 0.0
-0.424022 0.001056 0.0
-0.422437 -0.000089 0.0
-0.420089 -0.001199 0.0
-0.417028 -0.002240 0.0
-0.413318 -0.003184 0.0
-0.409034 -0.004005 0.0
-0.404260 -0.004681 0.0
-0.399095 -0.005198 0.0
-0.393643 -0.005546 0.0
-0.388011 -0.005721 0.0
-0.382309 -0.005724 0.0
-0.376640 -0.005564 0.0
-0.371101 -0.005252 0.0
-0.365780 -0.004810 0.0
-0.360748 -0.004259 0.0
-0.356062 -0.003626 0.0
-0.351763 -0.002943 0.0
-0.347869 -0.002239 0.0
-0.344383 -0.001550 0.0
-0.341285 -0.000907 0.0
-0.338534 -0.000342 0.0
-0.336073 0.000117 0.0
-0.333826 0.000444 0.0
-0.331705 0.000618 0.0
-0.329611 0.000624 0.0
-0.327437 0.000454 0.0
-0.325076 0.000110 0.0
-0.322424 -0.000399 0.0
-0.319383 -0.001058 0.0
-0.315868 -0.001847 0.0
-0.311803 -0.002738 0.0
-0.307134 -0.003703 0.0
-0.301826 -0.004708 0.0
-0.295869 -0.005718 0.0
-0.289275 -0.006697 0.0
-0.282081 -0.007612 0.0
-0.274343 -0.008435 0.0
-0.266137 -0.009138 0.0
-0.257554 -0.009702 0.0
-0.248694 -0.010116 0.0
-0.239666 -0.010373 0.0
-0.230578 -0.010469 0.0
-0.221538 -0.010409 0.0
-0.212649 -0.010200 0.0
-0.204004 -0.009853 0.0
-0.195687 -0.009385 0.0
-0.187770 -0.008814 0.0
-0.180312 -0.008163 0.0
-0.173362 -0.007452 0.0
-0.166954 -0.006702 0.0
-0.161118 -0.005925 0.0
-0.155875 -0.005131 0.0
-0.151239 -0.004325 0.0
-0.147220 -0.003516 0.0
-0.143820 -0.002721 0.0
-0.141032 -0.001962 0.0
-0.138842 -0.001283 0.0
-0.137237 -0.000764 0.0
-0.136208 -0.000535 0.0
-0.135367 -0.000929 0.0
1.000667 0.003073 0.0
1.002518 0.007701 0.0
1.004952 0.010920 0.0
1.007351 0.013180 0.0
1.009504 0.014822 0.0
1.011362 0.016064 0.0
1.012935 0.017036 0.0
1.014243 0.017825 0.0
1.015306 0.018486 0.0
1.016140 0.019059 0.0
1.016753 0.019572 0.0
1.017150 0.020048 0.0
1.017330 0.020503 0.0
1.017290 0.020950 0.0
1.017022 0.021397 0.0
1.016518 0.021853 0.0
1.015765 0.022324 0.0
1.014751 0.022816 0.0
1.013463 0.023336 0.0
1.011883 0.023893 0.0
1.009993 0.024498 0.0
1.007772 0.025167 0.0
1.005192 0.025918 0.0
1.002223 0.026778 0.0
0.998826 0.027779 0.0
0.994952 0.028964 0.0
0.990539 0.030389 0.0
0.985509 0.032126 0.0
0.979761 0.034274 0.0
0.973163 0.036964 0.0
0.965540 0.040376 0.0
0.956655 0.044757 0.0
0.946184 0.050446 0.0
0.933675 0.057912 0.0
0.918476 0.067790 0.0
0.899642 0.080925 0.0
0.875765 0.098400 0.0
0.844728 0.121497 0.0
0.803320 0.151476 0.0
0.746691 0.188868 0.0
0.667584 0.231447 0.0
0.554538 0.268392 0.0
0.388473 0.270807 0.0
0.144597 0.179197 0.0
0.500000 -0.179272 0.0
1.000000 0.000000 0.0
1.000000 0.000000 0.0
1.000000 0.000000 0.0
1.000000 0.000000 0.0
1.000000 0.000000 0.0
0.500000 0.135354 0.0
0.011430 -0.135512 0.0
0.020640 -0.065093 0.0
-0.019251 0.009746 0.0
-0.087962 0.070037 0.0
-0.153523 0.108518 0.0
-0.226605 0.131144 0.0
-0.300474 0.159888 0.0
-0.367287 0.191538 0.0
-0.432196 0.220465 0.0
-0.504438 0.248829 0.0
-0.587816 0.273900 0.0
-0.681363 0.292937 0.0
-0.782077 0.303886 0.0
-0.885912 0.304401 0.0
-0.987869 0.292179 0.0
-1.082175 0.265670 0.0
-1.162727 0.224696 0.0
-1.223752 0.170928 0.0
-1.260688 0.108060 0.0
-1.271063 0.041436 0.0
-1.254888 -0.022932 0.0
-1.215955 -0.076889 0.0
-1.160854 -0.116391 0.0
-1.096262 -0.141300 0.0
-1.027943 -0.153600 0.0
-0.960105 -0.156095 0.0
-0.895535 -0.151549 0.0
-0.835929 -0.142312 0.0
-0.782186 -0.130261 0.0
-0.734642 -0.116805 0.0
-0.693269 -0.102950 0.0
-0.657800 -0.089406 0.0
-0.627814 -0.076647 0.0
-0.602799 -0.064984 0.0
-0.582187 -0.054604 0.0
-0.565379 -0.045600 0.0
-0.551774 -0.037991 0.0
-0.540785 -0.031735 0.0
-0.531864 -0.026738 0.0
-0.524522 -0.022871 0.0
-0.518332 -0.019993 0.0
-0.512931 -0.017958 0.0
-0.508020 -0.016626 0.0
-0.503360 -0.015866 0.0
-0.498763 -0.015564 0.0
-0.494088 -0.015627 0.0
-0.489229 -0.015975 0.0
-0.484105 -0.016543 0.0
-0.478662 -0.017266 0.0
-0.472869 -0.018091 0.0
-0.466706 -0.018985 0.0
-0.460159 -0.019926 0.0
-0.453211 -0.020899 0.0
-0.445848 -0.021883 0.0
-0.438066 -0.022853 0.0
-0.429866 -0.023776 0.0
-0.421268 -0.024607 0.0
-0.412309 -0.025299 0.0
-0.403047 -0.025798 0.0
-0.393562 -0.026052 0.0
-0.383954 -0.026015 0.0
-0.374340 -0.025651 0.0
-0.364847 -0.024935 0.0
-0.355611 -0.023858 0.0
-0.346767 -0.022426 0.0
-0.338447 -0.020658 0.0
-0.330770 -0.018588 0.0
-0.323843 -0.016262 0.0
-0.317752 -0.013735 0.0
-0.312562 -0.011069 0.0
-0.308316 -0.008332 0.0
-0.305029 -0.005592 0.0
-0.302692 -0.002919 0.0
-0.301265 -0.000372 0.0
-0.300692 0.001994 0.0
-0.300918 0.004127 0.0
-0.301859 0.005977 0.0
-0.303403 0.007504 0.0
-0.305417 0.008674 0.0
-0.307755 0.009467 0.0
-0.310266 0.009874 0.0
-0.312797 0.009893 0.0
-0.315197 0.009539 0.0
-0.317321 0.008831 0.0
-0.319039 0.007803 0.0
-0.320231 0.006494 0.0
-0.320801 0.004951 0.0
-0.320669 0.003225 0.0
-0.319782 0.001367 0.0
-0.318122 -0.000562 0.0
-0.315695 -0.002484 0.0
-0.312506 -0.004341 0.0
-0.308585 -0.006080 0.0
-0.303985 -0.007655 0.0
-0.298779 -0.009024 0.0
-0.293058 -0.010156 0.0
-0.286920 -0.011025 0.0
-0.280476 -0.011616 0.0
-0.273837 -0.011922 0.0
-0.267115 -0.011948 0.0
-0.260419 -0.011706 0.0
-0.253849 -0.011219 0.0
-0.247495 -0.010519 0.0
-0.241434 -0.009643 0.0
-0.235725 -0.008636 0.0
-0.230413 -0.007545 0.0
-0.225523 -0.006421 0.0
-0.221058 -0.005319 0.0
-0.217005 -0.004290 0.0
-0.213327 -0.003388 0.0
-0.209968 -0.002658 0.0
-0.206853 -0.002143 0.0
-0.203893 -0.001877 0.0
-0.200985 -0.001884 0.0
-0.198019 -0.002178 0.0
-0.194879 -0.002758 0.0
-0.191451 -0.003611 0.0
-0.187627 -0.004712 0.0
-0.183310 -0.006026 0.0
-0.178422 -0.007511 0.0
-0.172905 -0.009116 0.0
-0.166724 -0.010784 0.0
-0.159871 -0.012453 0.0
-0.152362 -0.014065 0.0
-0.144234 -0.015566 0.0
-0.135546 -0.016906 0.0
-0.126380 -0.018038 0.0
-0.116831 -0.018934 0.0
-0.107005 -0.019571 0.0
-0.097010 -0.019941 0.0
-0.086959 -0.020041 0.0
-0.076957 -0.019879 0.0
-0.067107 -0.019470 0.0
-0.057497 -0.018838 0.0
-0.048206 -0.018008 0.0
-0.039302 -0.017012 0.0
-0.030843 -0.015882 0.0
-0.022873 -0.014652 0.0
-0.015433 -0.013349 0.0
-0.008550 -0.011997 0.0
-0.002243 -0.010611 0.0
0.003481 -0.009206 0.0
0.008626 -0.007800 0.0
0.013202 -0.006413 0.0
0.017218 -0.005073 0.0
0.020676 -0.003820 0.0
0.023561 -0.002717 0.0
0.025805 -0.001855 0.0
0.027242 -0.001889 0.0
1.000304 0.002102 0.0
1.001303 0.005823 0.0
1.002856 0.008811 0.0
1.004602 0.011143 0.0
1.006341 0.012967 0.0
1.007987 0.014415 0.0
1.009509 0.015591 0.0
1.010902 0.016570 0.0
1.012172 0.017408 0.0
1.013326 0.018149 0.0
1.014370 0.018825 0.0
1.015307 0.019462 0.0
1.016137 0.020079 0.0
1.016856 0.020694 0.0
1.017460 0.021316 0.0
1.017942 0.021956 0.0
1.018294 0.022622 0.0
1.018504 0.023321 0.0
1.018563 0.024061 0.0
1.018457 0.024853 0.0
1.018175 0.025710 0.0
1.017702 0.026650 0.0
1.017021 0.027695 0.0
1.016114 0.028876 0.0
1.014963 0.030230 0.0
1.013542 0.031807 0.0
1.011828 0.033673 0.0
1.009789 0.035911 0.0
1.007390 0.038635 0.0
1.004592 0.041999 0.0
1.001345 0.046211 0.0
0.997589 0.051562 0.0
0.993241 0.058459 0.0
0.988177 0.067473 0.0
0.982189 0.079415 0.0
0.974895 0.095428 0.0
0.965559 0.117110 0.0
0.952722 0.146662 0.0
0.933455 0.186987 0.0
0.901855 0.241585 0.0
0.846033 0.313660 0.0
0.742435 0.402823 0.0
0.548367 0.496510 0.0
0.210972 0.534765 0.0
0.500000 -0.534888 0.0
1.000000 0.000000 0.0
1.000000 0.000000 0.0
1.000000 0.000000 0.0
1.000000 0.000000 0.0
1.000000 0.000000 0.0
0.500000 0.126706 0.0
-0.020054 -0.126888 0.0
-0.077833 -0.025148 0.0
-0.143412 0.075271 0.0
-0.203265 0.133076 0.0
-0.267373 0.175148 0.0
-0.330608 0.200832 0.0
-0.386812 0.220273 0.0
-0.428582 0.239736 0.0
-0.461204 0.269798 0.0
-0.500405 0.310939 0.0
-0.554779 0.349542 0.0
-0.623365 0.379430 0.0
-0.703346 0.398088 0.0
-0.791387 0.402077 0.0
-0.882750 0.387823 0.0
-0.971259 0.352840 0.0
-1.049578 0.296396 0.0
-1.109661 0.220336 0.0
-1.143934 0.129860 0.0
-1.147368 0.033445 0.0
-1.119431 -0.059054 0.0
-1.065726 -0.133405 0.0
-0.995985 -0.184717 0.0
-0.919266 -0.214283 0.0
-0.841951 -0.226252 0.0
-0.768005 -0.225228 0.0
-0.699711 -0.215280 0.0
-0.638251 -0.199646 0.0
-0.584058 -0.180864 0.0
-0.537035 -0.160768 0.0
-0.496807 -0.140588 0.0
-0.462855 -0.121190 0.0
-0.434582 -0.103123 0.0
-0.411360 -0.086745 0.0
-0.392542 -0.072273 0.0
-0.377475 -0.059805 0.0
-0.365518 -0.049349 0.0
-0.356052 -0.040832 0.0
-0.348508 -0.034104 0.0
-0.342398 -0.028957 0.0
-0.337310 -0.025185 0.0
-0.332899 -0.022578 0.0
-0.328884 -0.020932 0.0
-0.325051 -0.020055 0.0
-0.321243 -0.019780 0.0
-0.317353 -0.019976 0.0
-0.313302 -0.020537 0.0
-0.309027 -0.021380 0.0
-0.304484 -0.022415 0.0
-0.299655 -0.023565 0.0
-0.294532 -0.024797 0.0
-0.289096 -0.026097 0.0
-0.283323 -0.027449 0.0
-0.277186 -0.028832 0.0
-0.270658 -0.030214 0.0
-0.263724 -0.031548 0.0
-0.256384 -0.032773 0.0
-0.248660 -0.033817 0.0
-0.240599 -0.034602 0.0
-0.232276 -0.035055 0.0
-0.223787 -0.035108 0.0
-0.215251 -0.034709 0.0
-0.206800 -0.033822 0.0
-0.198575 -0.032433 0.0
-0.190718 -0.030551 0.0
-0.183367 -0.028203 0.0
-0.176650 -0.025436 0.0
-0.170678 -0.022313 0.0
-0.165543 -0.018910 0.0
-0.161316 -0.015312 0.0
-0.158040 -0.011611 0.0
-0.155734 -0.007906 0.0
-0.154385 -0.004291 0.0
-0.153953 -0.000859 0.0
-0.154382 0.002338 0.0
-0.155603 0.005231 0.0
-0.157523 0.007735 0.0
-0.160018 0.009786 0.0
-0.162952 0.011339 0.0
-0.166174 0.012363 0.0
-0.169526 0.012842 0.0
-0.172847 0.012778 0.0
-0.175980 0.012187 0.0
-0.178774 0.011102 0.0
-0.181090 0.009567 0.0
-0.182808 0.007641 0.0
-0.183825 0.005391 0.0
-0.184066 0.002894 0.0
-0.183485 0.000230 0.0
-0.182055 -0.002514 0.0
-0.179759 -0.005256 0.0
-0.176603 -0.007914 0.0
-0.172626 -0.010407 0.0
-0.167889 -0.012665 0.0
-0.162476 -0.014632 0.0
-0.156487 -0.016259 0.0
-0.150037 -0.017510 0.0
-0.143246 -0.018366 0.0
-0.136238 -0.018820 0.0
-0.129134 -0.018876 0.0
-0.122054 -0.018553 0.0
-0.115111 -0.017885 0.0
-0.108403 -0.016915 0.0
-0.102016 -0.015696 0.0
-0.096018 -0.014289 0.0
-0.090460 -0.012762 0.0
-0.085370 -0.011185 0.0
-0.080753 -0.009635 0.0
-0.076596 -0.008185 0.0
-0.072858 -0.006909 0.0
-0.069479 -0.005874 0.0
-0.066380 -0.005141 0.0
-0.063459 -0.004759 0.0
-0.060606 -0.004764 0.0
-0.057695 -0.005176 0.0
-0.054596 -0.005998 0.0
-0.051181 -0.007214 0.0
-0.047326 -0.008788 0.0
-0.042919 -0.010672 0.0
-0.037871 -0.012801 0.0
-0.032115 -0.015099 0.0
-0.025615 -0.017481 0.0
-0.018363 -0.019860 0.0
-0.010382 -0.022149 0.0
-0.001726 -0.024266 0.0
0.007522 -0.026142 0.0
0.017273 -0.027719 0.0
0.027424 -0.028953 0.0
0.037861 -0.029816 0.0
0.048464 -0.030294 0.0
0.059113 -0.030389 0.0
0.069694 -0.030113 0.0
0.080100 -0.029493 0.0
0.090236 -0.028561 0.0
0.100019 -0.027358 0.0
0.109381 -0.025927 0.0
0.118266 -0.024312 0.0
0.126631 -0.022557 0.0
0.134446 -0.020700 0.0
0.141691 -0.018774 0.0
0.148356 -0.016806 0.0
0.154440 -0.014819 0.0
0.159943 -0.012835 0.0
0.164863 -0.010874 0.0
0.169191 -0.008956 0.0
0.172908 -0.007112 0.0
0.175976 -0.005379 0.0
0.178342 -0.003803 0.0
0.179824 -0.002860 0.0
1.000169 0.001628 0.0
1.000775 0.004692 0.0
1.001807 0.007358 0.0
1.003067 0.009591 0.0
1.004411 0.011436 0.0
1.005752 0.012959 0.0
1.007046 0.014230 0.0
1.008274 0.015309 0.0
1.009429 0.016244 0.0
1.010510 0.017078 0.0
1.011518 0.017844 0.0
1.012452 0.018571 0.0
1.013313 0.019280 0.0
1.014098 0.019989 0.0
1.014803 0.020712 0.0
1.015424 0.021458 0.0
1.015956 0.022238 0.0
1.016391 0.023059 0.0
1.016726 0.023930 0.0
1.016953 0.024862 0.0
1.017066 0.025870 0.0
1.017059 0.026971 0.0
1.016926 0.028188 0.0
1.016664 0.029552 0.0
1.016268 0.031102 0.0
1.015738 0.032886 0.0
1.015078 0.034969 0.0
1.014297 0.037434 0.0
1.013417 0.040391 0.0
1.012474 0.043985 0.0
1.011532 0.048415 0.0
1.010686 0.053960 0.0
1.010085 0.061010 0.0
1.009938 0.070132 0.0
1.010529 0.082155 0.0
1.012191 0.098320 0.0
1.015230 0.120516 0.0
1.019652 0.151671 0.0
1.024479 0.196418 0.0
1.026010 0.262223 0.0
1.013567 0.361288 0.0
0.959022 0.513339 0.0
0.791596 0.747488 0.0
0.333520 1.079257 0.0
0.500000 -1.079461 0.0
1.000000 0.000000 0.0
1.000000 0.000000 0.0
1.000000 0.000000 0.0
1.000000 0.000000 0.0
1.000000 0.000000 0.0
0.500000 0.062954 0.0
-0.043657 -0.063177 0.0
-0.127163 0.052424 0.0
-0.201581 0.137696 0.0
-0.268734 0.197657 0.0
-0.331709 0.237650 0.0
-0.388671 0.258526 0.0
-0.430465 0.260578 0.0
-0.439950 0.250686 0.0
-0.424667 0.276186 0.0
-0.422391 0.341476 0.0
-0.449039 0.400028 0.0
-0.496358 0.444851 0.0
-0.560754 0.477043 0.0
-0.640695 0.491104 0.0
-0.731482 0.480946 0.0
-0.825583 0.442327 0.0
-0.913044 0.372690 0.0
-0.981558 0.272639 0.0
-1.018080 0.148352 0.0
-1.012814 0.013122 0.0
-0.966505 -0.112977 0.0
-0.892549 -0.207143 0.0
-0.806949 -0.266320 0.0
-0.720079 -0.296269 0.0
-0.637148 -0.304512 0.0
-0.560525 -0.297537 0.0
-0.491361 -0.280430 0.0
-0.430320 -0.256997 0.0
-0.377602 -0.230424 0.0
-0.332850 -0.202982 0.0
-0.295442 -0.176011 0.0
-0.264633 -0.150529 0.0
-0.239625 -0.127064 0.0
-0.219669 -0.105982 0.0
-0.204013 -0.087510 0.0
-0.191921 -0.071728 0.0
-0.182679 -0.058625 0.0
-0.175596 -0.048106 0.0
-0.170034 -0.039936 0.0
-0.165491 -0.033779 0.0
-0.161579 -0.029363 0.0
-0.157982 -0.026408 0.0
-0.154459 -0.024640 0.0
-0.150842 -0.023797 0.0
-0.147034 -0.023654 0.0
-0.142988 -0.024037 0.0
-0.138697 -0.024818 0.0
-0.134154 -0.025917 0.0
-0.129353 -0.027221 0.0
-0.124311 -0.028629 0.0
-0.119041 -0.030125 0.0
-0.113541 -0.031704 0.0
-0.107796 -0.033360 0.0
-0.101778 -0.035076 0.0
-0.095456 -0.036819 0.0
-0.088802 -0.038531 0.0
-0.081804 -0.040129 0.0
-0.074476 -0.041514 0.0
-0.066860 -0.042581 0.0
-0.059031 -0.043228 0.0
-0.051091 -0.043364 0.0
-0.043165 -0.042915 0.0
-0.035396 -0.041836 0.0
-0.027929 -0.040111 0.0
-0.020912 -0.037747 0.0
-0.014488 -0.034782 0.0
-0.008784 -0.031278 0.0
-0.003913 -0.027315 0.0
0.000033 -0.022990 0.0
0.002988 -0.018414 0.0
0.004912 -0.013708 0.0
0.005792 -0.008995 0.0
0.005645 -0.004404 0.0
0.004513 -0.000047 0.0
0.002444 0.004024 0.0
-0.000477 0.007687 0.0
-0.004120 0.010840 0.0
-0.008347 0.013403 0.0
-0.013005 0.015314 0.0
-0.017927 0.016532 0.0
-0.022939 0.017036 0.0
-0.027862 0.016827 0.0
-0.032521 0.015929 0.0
-0.036749 0.014381 0.0
-0.040391 0.012247 0.0
-0.043313 0.009602 0.0
-0.045405 0.006540 0.0
-0.046582 0.003163 0.0
-0.046788 -0.000414 0.0
-0.045995 -0.004094 0.0
-0.044188 -0.007779 0.0
-0.041383 -0.011351 0.0
-0.037626 -0.014704 0.0
-0.032989 -0.017743 0.0
-0.027568 -0.020388 0.0
-0.021482 -0.022577 0.0
-0.014861 -0.024263 0.0
-0.007847 -0.025419 0.0
-0.000586 -0.026037 0.0
0.006780 -0.026128 0.0
0.014119 -0.025720 0.0
0.021313 -0.024855 0.0
0.028251 -0.023590 0.0
0.034836 -0.021993 0.0
0.040993 -0.020145 0.0
0.046663 -0.018134 0.0
0.051813 -0.016054 0.0
0.056434 -0.014003 0.0
0.060540 -0.012081 0.0
0.064172 -0.010383 0.0
0.067396 -0.009002 0.0
0.070303 -0.008018 0.0
0.073001 -0.007500 0.0
0.075620 -0.007496 0.0
0.078303 -0.008038 0.0
0.081198 -0.009130 0.0
0.084455 -0.010754 0.0
0.088215 -0.012864 0.0
0.092604 -0.015393 0.0
0.097726 -0.018251 0.0
0.103656 -0.021334 0.0
0.110433 -0.024524 0.0
0.118066 -0.027702 0.0
0.126526 -0.030749 0.0
0.135758 -0.033553 0.0
0.145675 -0.036021 0.0
0.156169 -0.038084 0.0
0.167111 -0.039682 0.0
0.178366 -0.040779 0.0
0.189794 -0.041362 0.0
0.201257 -0.041434 0.0
0.212627 -0.041018 0.0
0.223784 -0.040150 0.0
0.234623 -0.038878 0.0
0.245054 -0.037256 0.0
0.255005 -0.035342 0.0
0.264420 -0.033197 0.0
0.273258 -0.030876 0.0
0.281493 -0.028431 0.0
0.289113 -0.025907 0.0
0.296114 -0.023339 0.0
0.302499 -0.020755 0.0
0.308272 -0.018175 0.0
0.313431 -0.015613 0.0
0.317967 -0.013081 0.0
0.321852 -0.010589 0.0
0.325038 -0.008157 0.0
0.327458 -0.005811 0.0
0.328946 -0.003823 0.0
1.000107 0.001352 0.0
1.000510 0.003960 0.0
1.001232 0.006335 0.0
1.002164 0.008421 0.0
1.003211 0.010216 0.0
1.004302 0.011747 0.0
1.005394 0.013056 0.0
1.006462 0.014187 0.0
1.007492 0.015181 0.0
1.008476 0.016075 0.0
1.009411 0.016904 0.0
1.010293 0.017694 0.0
1.011118 0.018470 0.0
1.011884 0.019249 0.0
1.012586 0.020045 0.0
1.013219 0.020870 0.0
1.013780 0.021733 0.0
1.014265 0.022643 0.0
1.014669 0.023607 0.0
1.014991 0.024637 0.0
1.015228 0.025746 0.0
1.015379 0.026950 0.0
1.015447 0.028273 0.0
1.015435 0.029742 0.0
1.015350 0.031392 0.0
1.015208 0.033268 0.0
1.015030 0.035425 0.0
1.014854 0.037935 0.0
1.014738 0.040886 0.0
1.014773 0.044397 0.0
1.015098 0.048621 0.0
1.015925 0.053772 0.0
1.017577 0.060148 0.0
1.020535 0.068183 0.0
1.025515 0.078533 0.0
1.033565 0.092229 0.0
1.046185 0.110949 0.0
1.065447 0.137553 0.0
1.094027 0.177129 0.0
1.134836 0.239171 0.0
1.189250 0.342367 0.0
1.249855 0.526200 0.0
1.283129 0.868778 0.0
0.643197 1.798750 0.0
-1.849426 -0.706517 0.0
-3.667407 0.000000 0.0
-3.625361 0.000000 0.0
-3.604196 0.000000 0.0
-3.574401 0.000000 0.0
-3.515320 0.000000 0.0
-1.737735 0.009633 0.0
-0.077586 0.047914 0.0
-0.202975 0.140077 0.0
-0.286094 0.207581 0.0
-0.348616 0.257447 0.0
-0.398641 0.290860 0.0
-0.442575 0.306211 0.0
-0.472336 0.284448 0.0
-0.435196 0.199161 0.0
-0.334155 0.211388 0.0
-0.275442 0.345286 0.0
-0.283940 0.431363 0.0
-0.314551 0.491446 0.0
-0.365099 0.545392 0.0
-0.441110 0.578707 0.0
-0.536950 0.579970 0.0
-0.642441 0.542895 0.0
-0.743684 0.460826 0.0
-0.821336 0.330668 0.0
-0.854082 0.159590 0.0
-0.825019 -0.032444 0.0
-0.746280 -0.192458 0.0
-0.649321 -0.298577 0.0
-0.553415 -0.356392 0.0
-0.466772 -0.379710 0.0
-0.390494 -0.380280 0.0
-0.323009 -0.365876 0.0
-0.262762 -0.341501 0.0
-0.209274 -0.310455 0.0
-0.162778 -0.276180 0.0
-0.123336 -0.241420 0.0
-0.090777 -0.207540 0.0
-0.064567 -0.176019 0.0
-0.043911 -0.147236 0.0
-0.028102 -0.121576 0.0
-0.016379 -0.099294 0.0
-0.007986 -0.080428 0.0
-0.002228 -0.064926 0.0
0.001576 -0.052693 0.0
0.004081 -0.043415 0.0
0.005830 -0.036591 0.0
0.007258 -0.031891 0.0
0.008717 -0.028936 0.0
0.010455 -0.027373 0.0
0.012642 -0.026867 0.0
0.015373 -0.027124 0.0
0.018682 -0.027922 0.0
0.022560 -0.029103 0.0
0.026924 -0.030539 0.0
0.031660 -0.032135 0.0
0.036737 -0.033835 0.0
0.042169 -0.035621 0.0
0.047955 -0.037494 0.0
0.054097 -0.039458 0.0
0.060607 -0.041507 0.0
0.067507 -0.043610 0.0
0.074812 -0.045699 0.0
0.082525 -0.047671 0.0
0.090619 -0.049394 0.0
0.099032 -0.050729 0.0
0.107660 -0.051538 0.0
0.116364 -0.051698 0.0
0.124976 -0.051118 0.0
0.133316 -0.049742 0.0
0.141195 -0.047551 0.0
0.148434 -0.044563 0.0
0.154871 -0.040828 0.0
0.160364 -0.036428 0.0
0.164795 -0.031466 0.0
0.168075 -0.026064 0.0
0.170140 -0.020361 0.0
0.170961 -0.014505 0.0
0.170538 -0.008655 0.0
0.168910 -0.002969 0.0
0.166104 0.002455 0.0
0.162193 0.007502 0.0
0.157314 0.012009 0.0
0.151614 0.015861 0.0
0.145261 0.018962 0.0
0.138439 0.021235 0.0
0.131345 0.022628 0.0
0.124183 0.023114 0.0
0.117159 0.022697 0.0
0.110475 0.021402 0.0
0.104324 0.019285 0.0
0.098884 0.016425 0.0
0.094309 0.012921 0.0
0.090731 0.008891 0.0
0.088250 0.004469 0.0
0.086937 -0.000200 0.0
0.086822 -0.004987 0.0
0.087903 -0.009775 0.0
0.090158 -0.014414 0.0
0.093529 -0.018768 0.0
0.097927 -0.022714 0.0
0.103237 -0.026148 0.0
0.109324 -0.028990 0.0
0.116037 -0.031182 0.0
0.123216 -0.032692 0.0
0.130701 -0.033510 0.0
0.138335 -0.033655 0.0
0.145965 -0.033163 0.0
0.153447 -0.032088 0.0
0.160654 -0.030501 0.0
0.167475 -0.028489 0.0
0.173820 -0.026151 0.0
0.179622 -0.023600 0.0
0.184839 -0.020955 0.0
0.189456 -0.018340 0.0
0.193488 -0.015882 0.0
0.196977 -0.013704 0.0
0.199997 -0.011925 0.0
0.202647 -0.010651 0.0
0.205054 -0.009972 0.0
0.207365 -0.009955 0.0
0.209746 -0.010643 0.0
0.212373 -0.012046 0.0
0.215419 -0.014141 0.0
0.219055 -0.016872 0.0
0.223429 -0.020148 0.0
0.228663 -0.023852 0.0
0.234845 -0.027844 0.0
0.242023 -0.031969 0.0
0.250201 -0.036068 0.0
0.259345 -0.039986 0.0
0.269380 -0.043581 0.0
0.280201 -0.046731 0.0
0.291673 -0.049340 0.0
0.303646 -0.051339 0.0
0.315956 -0.052686 0.0
0.328440 -0.053366 0.0
0.340938 -0.053391 0.0
0.353300 -0.052793 0.0
0.365393 -0.051624 0.0
0.377097 -0.049948 0.0