# vtk DataFile Version 3.0
Vector Field
ASCII
DATASET RECTILINEAR_GRID
DIMENSIONS 200 50 1
X_COORDINATES 200 double
0.050000 0.150000 0.250000 0.350000 0.450000 0.550000 0.650000 0.750000 0.850000 0.950000 1.050000 1.150000 1.250000 1.350000 1.450000 1.550000 1.650000 1.750000 1.850000 1.950000 2.050000 2.150000 2.250000 2.350000 2.450000 2.550000 2.650000 2.750000 2.850000 2.950000 3.050000 3.150000 3.250000 3.350000 3.450000 3.550000 3.650000 3.750000 3.850000 3.950000 4.050000 4.150000 4.250000 4.350000 4.450000 4.550000 4.650000 4.750000 4.850000 4.950000 5.050000 5.150000 5.250000 5.350000 5.450000 5.550000 5.650000 5.750000 5.850000 5.950000 6.050000 6.150000 6.250000 6.350000 6.450000 6.550000 6.650000 6.750000 6.850000 6.950000 7.050000 7.150000 7.250000 7.350000 7.450000 7.550000 7.650000 7.750000 7.850000 7.950000 8.050000 8.150000 8.250000 8.350000 8.450000 8.550000 8.650000 8.750000 8.850000 8.950000 9.050000 9.150000 9.250000 9.350000 9.450000 9.550000 9.650000 9.750000 9.850000 9.950000 10.050000 10.150000 10.250000 10.350000 10.450000 10.550000 10.650000 10.750000 10.850000 10.950000 11.050000 11.150000 11.250000 11.350000 11.450000 11.550000 11.650000 11.750000 11.850000 11.950000 12.050000 12.150000 12.250000 12.350000 12.450000 12.550000 12.650000 12.750000 12.850000 12.950000 13.050000 13.150000 13.250000 13.350000 13.450000 13.550000 13.650000 13.750000 13.850000 13.950000 14.050000 14.150000 14.250000 14.350000 14.450000 14.550000 14.650000 14.750000 14.850000 14.950000 15.050000 15.150000 15.250000 15.350000 15.450000 15.550000 15.650000 15.750000 15.850000 15.950000 16.050000 16.150000 16.250000 16.350000 16.450000 16.550000 16.650000 16.750000 16.850000 16.950000 17.050000 17.150000 17.250000 17.350000 17.450000 17.550000 17.650000 17.750000 17.850000 17.950000 18.050000 18.150000 18.250000 18.350000 18.450000 18.550000 18.650000 18.750000 18.850000 18.950000 19.050000 19.150000 19.250000 19.350000 19.450000 19.550000 19.650000 19.750000 19.850000 19.950000 
Y_COORDINATES 50 double
0.050000 0.150000 0.250000 0.350000 0.450000 0.550000 0.650000 0.750000 0.850000 0.950000 1.050000 1.150000 1.250000 1.350000 1.450000 1.550000 1.650000 1.750000 1.850000 1.950000 2.050000 2.150000 2.250000 2.350000 2.450000 2.550000 2.650000 2.750000 2.850000 2.950000 3.050000 3.150000 3.250000 3.350000 3.450000 3.550000 3.650000 3.750000 3.850000 3.950000 4.050000 4.150000 4.250000 4.350000 4.450000 4.550000 4.650000 4.750000 4.850000 4.950000 
Z_COORDINATES 1 double
0.0
POINT_DATA 10000
VECTORS Vektorfeld double
0.996417 0.003583 0.0
0.986625 0.006208 0.0
0.973092 0.007325 0.0
0.957899 0.007867 0.0
0.941875 0.008157 0.0
0.925399 0.008320 0.0
0.908668 0.008411 0.0
0.891797 0.008459 0.0
0.874858 0.008479 0.0
0.857900 0.008480 0.0
0.840953 0.008467 0.0
0.824041 0.008445 0.0
0.807176 0.008419 0.0
0.790365 0.008391 0.0
0.773609 0.008364 0.0
0.756904 0.008341 0.0
0.740242 0.008322 0.0
0.723609 0.008311 0.0
0.706991 0.008308 0.0
0.690367 0.008316 0.0
0.673714 0.008337 0.0
0.657005 0.008373 0.0
0.640203 0.008428 0.0
0.623267 0.008508 0.0
0.606143 0.008617 0.0
0.588761 0.008764 0.0
0.571036 0.008961 0.0
0.552852 0.009222 0.0
0.534063 0.009567 0.0
0.514472 0.010024 0.0
0.493821 0.010627 0.0
0.471765 0.011428 0.0
0.447845 0.012493 0.0
0.421442 0.013910 0.0
0.391736 0.015796 0.0
0.357645 0.018295 0.0
0.317780 0.021570 0.0
0.270438 0.025773 0.0
0.213700 0.030964 0.0
0.145784 0.036951 0.0
0.065648 0.043185 0.0
-0.022407 0.044870 0.0
-0.083950 0.016672 0.0
-0.050311 -0.050311 0.0
0.500000 0.050297 0.0
1.000000 0.000000 0.0
1.000000 0.000000 0.0
1.000000 0.000000 0.0
1.000000 0.000000 0.0
1.000000 0.000000 0.0
0.500000 0.034252 0.0
0.034279 -0.034280 0.0
0.090628 -0.022069 0.0
0.122105 -0.009407 0.0
0.132148 -0.000636 0.0
0.127274 0.005510 0.0
0.116179 0.005585 0.0
0.111041 -0.000447 0.0
0.116309 -0.004821 0.0
0.125663 -0.004534 0.0
0.133960 -0.003764 0.0
0.139901 -0.002177 0.0
0.142016 0.000062 0.0
0.140151 0.001803 0.0
0.134797 0.003550 0.0
0.125247 0.006000 0.0
0.109926 0.009322 0.0
0.087322 0.013282 0.0
0.056555 0.017485 0.0
0.017644 0.021426 0.0
-0.028325 0.024543 0.0
-0.079764 0.026896 0.0
-0.135031 0.028371 0.0
-0.192394 0.028992 0.0
-0.250281 0.028895 0.0
-0.307447 0.028271 0.0
-0.363044 0.027326 0.0
-0.416624 0.026253 0.0
-0.468091 0.025214 0.0
-0.517634 0.024328 0.0
-0.565634 0.023673 0.0
-0.612590 0.023283 0.0
-0.659033 0.023159 0.0
-0.705465 0.023273 0.0
-0.752309 0.023572 0.0
-0.799874 0.023993 0.0
-0.848328 0.024462 0.0
-0.897695 0.024905 0.0
-0.947847 0.025248 0.0
-0.998519 0.025424 0.0
-1.049316 0.025373 0.0
-1.099734 0.025046 0.0
-1.149186 0.024406 0.0
-1.197024 0.023432 0.0
-1.242570 0.022115 0.0
-1.285150 0.020465 0.0
-1.324122 0.018507 0.0
-1.358909 0.016280 0.0
-1.389024 0.013835 0.0
-1.414090 0.011231 0.0
-1.433847 0.008526 0.0
-1.448144 0.005770 0.0
-1.456915 0.003001 0.0
-1.460154 0.000238 0.0
-1.457936 -0.002456 0.0
-1.450482 -0.004998 0.0
-1.438186 -0.007299 0.0
-1.421547 -0.009340 0.0
-1.401085 -0.011122 0.0
-1.377307 -0.012657 0.0
-1.350687 -0.013964 0.0
-1.321658 -0.015065 0.0
-1.290609 -0.015985 0.0
-1.257877 -0.016747 0.0
-1.223757 -0.017373 0.0
-1.188498 -0.017886 0.0
-1.152311 -0.018301 0.0
-1.115377 -0.018632 0.0
-1.077858 -0.018887 0.0
-1.039901 -0.019070 0.0
-1.001651 -0.019180 0.0
-0.963251 -0.019220 0.0
-0.924844 -0.019188 0.0
-0.886566 -0.019089 0.0
-0.848551 -0.018927 0.0
-0.810920 -0.018704 0.0
-0.773791 -0.018424 0.0
-0.737278 -0.018089 0.0
-0.701487 -0.017703 0.0
-0.666506 -0.017278 0.0
-0.632396 -0.016831 0.0
-0.599186 -0.016379 0.0
-0.566871 -0.015936 0.0
-0.535424 -0.015511 0.0
-0.504803 -0.015110 0.0
-0.474954 -0.014739 0.0
-0.445805 -0.014410 0.0
-0.417265 -0.014130 0.0
-0.389226 -0.013909 0.0
-0.361573 -0.013744 0.0
-0.334213 -0.013617 0.0
-0.307075 -0.013521 0.0
-0.280100 -0.013454 0.0
-0.253231 -0.013416 0.0
-0.226427 -0.013388 0.0
-0.199700 -0.013339 0.0
-0.173096 -0.013266 0.0
-0.146638 -0.013192 0.0
-0.120392 -0.013055 0.0
-0.094487 -0.012850 0.0
-0.068932 -0.012706 0.0
-0.043800 -0.012426 0.0
-0.019340 -0.012034 0.0
0.004200 -0.011505 0.0
0.026664 -0.010959 0.0
0.048050 -0.010426 0.0
0.068351 -0.009875 0.0
0.087526 -0.009299 0.0
0.105527 -0.008702 0.0
0.122319 -0.008090 0.0
0.137880 -0.007471 0.0
0.152205 -0.006855 0.0
0.165310 -0.006250 0.0
0.177225 -0.005665 0.0
0.187998 -0.005107 0.0
0.197689 -0.004584 0.0
0.206372 -0.004100 0.0
0.214132 -0.003660 0.0
0.221058 -0.003266 0.0
0.227243 -0.002920 0.0
0.232783 -0.002620 0.0
0.237769 -0.002366 0.0
0.242287 -0.002153 0.0
0.246417 -0.001977 0.0
0.250228 -0.001833 0.0
0.253775 -0.001714 0.0
0.257101 -0.001612 0.0
0.260230 -0.001517 0.0
0.263167 -0.001420 0.0
0.265897 -0.001310 0.0
0.268384 -0.001177 0.0
0.270578 -0.001016 0.0
0.272420 -0.000826 0.0
0.273857 -0.000611 0.0
0.274848 -0.000380 0.0
0.275375 -0.000147 0.0
0.275443 0.000078 0.0
0.275112 0.000253 0.0
0.274613 0.000246 0.0
0.274558 -0.000191 0.0
0.275544 -0.000795 0.0
0.277576 -0.001237 0.0
0.280212 -0.001399 0.0
0.282956 -0.001345 0.0
0.285501 -0.001201 0.0
0.287802 -0.001100 0.0
0.290017 -0.001114 0.0
0.292340 -0.001209 0.0
0.294750 -0.001201 0.0
0.296239 -0.000288 0.0
1.001712 0.005454 0.0
1.005183 0.010658 0.0
1.008165 0.013426 0.0
1.010062 0.015061 0.0
1.010932 0.016117 0.0
1.010917 0.016850 0.0
1.010142 0.017386 0.0
1.008702 0.017795 0.0
1.006670 0.018114 0.0
1.004102 0.018371 0.0
1.001041 0.018582 0.0
0.997521 0.018762 0.0
0.993566 0.018922 0.0
0.989195 0.019071 0.0
0.984419 0.019217 0.0
0.979245 0.019367 0.0
0.973675 0.019529 0.0
0.967704 0.019707 0.0
0.961326 0.019908 0.0
0.954529 0.020137 0.0
0.947296 0.020401 0.0
0.939605 0.020709 0.0
0.931427 0.021072 0.0
0.922722 0.021504 0.0
0.913441 0.022025 0.0
0.903518 0.022660 0.0
0.892865 0.023443 0.0
0.881370 0.024419 0.0
0.868882 0.025649 0.0
0.855201 0.027215 0.0
0.840059 0.029229 0.0
0.823097 0.031844 0.0
0.803827 0.035267 0.0
0.781587 0.039778 0.0
0.755477 0.045744 0.0
0.724279 0.053635 0.0
0.686369 0.064004 0.0
0.639630 0.077419 0.0
0.581453 0.094232 0.0
0.509029 0.114024 0.0
0.420865 0.134414 0.0
0.318855 0.143707 0.0
0.197889 0.100345 0.0
0.065444 -0.035178 0.0
0.500000 0.035118 0.0
1.000000 0.000000 0.0
1.000000 0.000000 0.0
1.000000 0.000000 0.0
1.000000 0.000000 0.0
1.000000 0.000000 0.0
0.500000 0.097030 0.0
0.028551 -0.097110 0.0
0.075900 -0.062937 0.0
0.102702 -0.026818 0.0
0.113631 -0.004198 0.0
0.106764 0.020814 0.0
0.079833 0.028307 0.0
0.039995 0.021806 0.0
-0.005461 0.013115 0.0
-0.044801 0.007516 0.0
-0.073738 0.004827 0.0
-0.097256 0.006809 0.0
-0.118989 0.010692 0.0
-0.140183 0.014233 0.0
-0.162392 0.018683 0.0
-0.187622 0.025646 0.0
-0.217840 0.035215 0.0
-0.254383 0.046535 0.0
-0.297753 0.058368 0.0
-0.347636 0.069337 0.0
-0.403194 0.078160 0.0
-0.463028 0.084553 0.0
-0.525312 0.088265 0.0
-0.588262 0.089411 0.0
-0.650308 0.088409 0.0
-0.710227 0.085841 0.0
-0.767216 0.082342 0.0
-0.820902 0.078503 0.0
-0.871282 0.074813 0.0
-0.918644 0.071633 0.0
-0.963466 0.069191 0.0
-1.006332 0.067586 0.0
-1.047846 0.066813 0.0
-1.088575 0.066780 0.0
-1.128999 0.067333 0.0
-1.169479 0.068276 0.0
-1.210237 0.069391 0.0
-1.251348 0.070453 0.0
-1.292735 0.071240 0.0
-1.334180 0.071548 0.0
-1.375330 0.071194 0.0
-1.415717 0.070029 0.0
-1.454781 0.067939 0.0
-1.491897 0.064853 0.0
-1.526407 0.060750 0.0
-1.557651 0.055654 0.0
-1.584998 0.049637 0.0
-1.607878 0.042816 0.0
-1.625805 0.035341 0.0
-1.638398 0.027385 0.0
-1.645398 0.019128 0.0
-1.646668 0.010735 0.0
-1.642186 0.002326 0.0
-1.632212 -0.005823 0.0
-1.617336 -0.013489 0.0
-1.598188 -0.020566 0.0
-1.575263 -0.026951 0.0
-1.548977 -0.032612 0.0
-1.519732 -0.037555 0.0
-1.487920 -0.041814 0.0
-1.453909 -0.045438 0.0
-1.418041 -0.048488 0.0
-1.380622 -0.051031 0.0
-1.341920 -0.053133 0.0
-1.302167 -0.054859 0.0
-1.261559 -0.056267 0.0
-1.220260 -0.057405 0.0
-1.178414 -0.058308 0.0
-1.136147 -0.058998 0.0
-1.093579 -0.059484 0.0
-1.050829 -0.059766 0.0
-1.008022 -0.059841 0.0
-0.965284 -0.059713 0.0
-0.922737 -0.059389 0.0
-0.880495 -0.058884 0.0
-0.838667 -0.058206 0.0
-0.797358 -0.057360 0.0
-0.756676 -0.056348 0.0
-0.716726 -0.055185 0.0
-0.677595 -0.053908 0.0
-0.639338 -0.052567 0.0
-0.601977 -0.051214 0.0
-0.565497 -0.049895 0.0
-0.529865 -0.048632 0.0
-0.495041 -0.047434 0.0
-0.460981 -0.046324 0.0
-0.427617 -0.045337 0.0
-0.394857 -0.044502 0.0
-0.362585 -0.043849 0.0
-0.330665 -0.043377 0.0
-0.299002 -0.043007 0.0
-0.267541 -0.042730 0.0
-0.236221 -0.042540 0.0
-0.204967 -0.042453 0.0
-0.173693 -0.042429 0.0
-0.142404 -0.042314 0.0
-0.111186 -0.042113 0.0
-0.080012 -0.041975 0.0
-0.048832 -0.041698 0.0
-0.017791 -0.041153 0.0
0.012651 -0.040399 0.0
0.042261 -0.039474 0.0
0.071197 -0.038383 0.0
0.099555 -0.037054 0.0
0.127309 -0.035629 0.0
0.154327 -0.034161 0.0
0.180503 -0.032618 0.0
0.205775 -0.031003 0.0
0.230107 -0.029331 0.0
0.253482 -0.027627 0.0
0.275903 -0.025916 0.0
0.297398 -0.024230 0.0
0.318014 -0.022595 0.0
0.337819 -0.021040 0.0
0.356901 -0.019587 0.0
0.375364 -0.018258 0.0
0.393322 -0.017068 0.0
0.410898 -0.016027 0.0
0.428214 -0.015140 0.0
0.445388 -0.014405 0.0
0.462526 -0.013813 0.0
0.479718 -0.013350 0.0
0.497028 -0.012997 0.0
0.514493 -0.012729 0.0
0.532117 -0.012516 0.0
0.549864 -0.012326 0.0
0.567659 -0.012120 0.0
0.585380 -0.011859 0.0
0.602862 -0.011498 0.0
0.619897 -0.010997 0.0
0.636244 -0.010324 0.0
0.651645 -0.009464 0.0
0.665853 -0.008429 0.0
0.678675 -0.007266 0.0
0.690015 -0.006054 0.0
0.699911 -0.004895 0.0
0.708567 -0.003898 0.0
0.716312 -0.003185 0.0
0.723402 -0.002906 0.0
0.729607 -0.003189 0.0
0.734422 -0.003597 0.0
0.737611 -0.003655 0.0
0.739206 -0.003212 0.0
0.739336 -0.002406 0.0
0.738150 -0.001498 0.0
0.735733 -0.000688 0.0
0.732073 -0.000081 0.0
0.727313 0.000195 0.0
0.722213 0.000084 0.0
0.719814 -0.000664 0.0
1.000667 0.003075 0.0
1.002514 0.007719 0.0
1.004938 0.010960 0.0
1.007318 0.013251 0.0
1.009438 0.014938 0.0
1.011247 0.016236 0.0
1.012748 0.017275 0.0
1.013960 0.018134 0.0
1.014902 0.018865 0.0
1.015589 0.019501 0.0
1.016034 0.020068 0.0
1.016243 0.020587 0.0
1.016221 0.021074 0.0
1.015966 0.021544 0.0
1.015474 0.022010 0.0
1.014739 0.022483 0.0
1.013750 0.022973 0.0
1.012495 0.023489 0.0
1.010957 0.024041 0.0
1.009118 0.024639 0.0
1.006958 0.025292 0.0
1.004451 0.026016 0.0
1.001568 0.026826 0.0
0.998276 0.027746 0.0
0.994535 0.028806 0.0
0.990294 0.030044 0.0
0.985493 0.031513 0.0
0.980055 0.033282 0.0
0.973881 0.035447 0.0
0.966842 0.038136 0.0
0.958768 0.041523 0.0
0.949430 0.045850 0.0
0.938512 0.051450 0.0
0.925570 0.058778 0.0
0.909969 0.068456 0.0
0.890780 0.081309 0.0
0.866624 0.098396 0.0
0.835423 0.120968 0.0
0.794027 0.150256 0.0
0.737687 0.186765 0.0
0.659284 0.228240 0.0
0.547424 0.263750 0.0
0.383398 0.265294 0.0
0.142724 0.172990 0.0
0.500000 -0.173113 0.0
1.000000 0.000000 0.0
1.000000 0.000000 0.0
1.000000 0.000000 0.0
1.000000 0.000000 0.0
1.000000 0.000000 0.0
0.500000 0.139032 0.0
0.013492 -0.139153 0.0
0.031784 -0.086534 0.0
0.023429 -0.021667 0.0
-0.020362 0.023512 0.0
-0.077602 0.057211 0.0
-0.131745 0.072984 0.0
-0.186912 0.072134 0.0
-0.238391 0.059723 0.0
-0.279085 0.040941 0.0
-0.306892 0.028146 0.0
-0.328982 0.029098 0.0
-0.351741 0.032896 0.0
-0.374391 0.035873 0.0
-0.396433 0.041293 0.0
-0.420271 0.052105 0.0
-0.448778 0.067481 0.0
-0.483487 0.085522 0.0
-0.524748 0.104013 0.0
-0.571957 0.120784 0.0
-0.623824 0.134137 0.0
-0.678600 0.143185 0.0
-0.734335 0.147651 0.0
-0.789192 0.147833 0.0
-0.841655 0.144496 0.0
-0.890657 0.138675 0.0
-0.935634 0.131476 0.0
-0.976490 0.123911 0.0
-1.013501 0.116796 0.0
-1.047202 0.110712 0.0
-1.078268 0.106001 0.0
-1.107418 0.102792 0.0
-1.135335 0.101039 0.0
-1.162617 0.100565 0.0
-1.189743 0.101097 0.0
-1.217057 0.102305 0.0
-1.244766 0.103828 0.0
-1.272937 0.105297 0.0
-1.301507 0.106353 0.0
-1.330288 0.106661 0.0
-1.358980 0.105924 0.0
-1.387189 0.103895 0.0
-1.414439 0.100387 0.0
-1.440196 0.095279 0.0
-1.463889 0.088527 0.0
-1.484931 0.080163 0.0
-1.502752 0.070295 0.0
-1.516824 0.059110 0.0
-1.526705 0.046856 0.0
-1.532069 0.033828 0.0
-1.532722 0.020338 0.0
-1.528598 0.006672 0.0
-1.519763 -0.006929 0.0
-1.506525 -0.019780 0.0
-1.489230 -0.031703 0.0
-1.468144 -0.042588 0.0
-1.443619 -0.052378 0.0
-1.416047 -0.061044 0.0
-1.385817 -0.068599 0.0
-1.353306 -0.075094 0.0
-1.318869 -0.080606 0.0
-1.282825 -0.085231 0.0
-1.245460 -0.089072 0.0
-1.207020 -0.092234 0.0
-1.167711 -0.094820 0.0
-1.127706 -0.096921 0.0
-1.087144 -0.098613 0.0
-1.046139 -0.099951 0.0
-1.004795 -0.100967 0.0
-0.963211 -0.101668 0.0
-0.921496 -0.102046 0.0
-0.879770 -0.102092 0.0
-0.838161 -0.101809 0.0
-0.796789 -0.101213 0.0
-0.755766 -0.100325 0.0
-0.715191 -0.099167 0.0
-0.675160 -0.097739 0.0
-0.635788 -0.096024 0.0
-0.597199 -0.094047 0.0
-0.559498 -0.091879 0.0
-0.522744 -0.089607 0.0
-0.486955 -0.087324 0.0
-0.452098 -0.085122 0.0
-0.418117 -0.083019 0.0
-0.384980 -0.081008 0.0
-0.352657 -0.079133 0.0
-0.321087 -0.077463 0.0
-0.290180 -0.076043 0.0
-0.259812 -0.074948 0.0
-0.229792 -0.074218 0.0
-0.200011 -0.073610 0.0
-0.170442 -0.073157 0.0
-0.141037 -0.072837 0.0
-0.111758 -0.072689 0.0
-0.082444 -0.072781 0.0
-0.052998 -0.072697 0.0
-0.023450 -0.072495 0.0
0.005897 -0.072113 0.0
0.034683 -0.071526 0.0
0.062992 -0.070676 0.0
0.091072 -0.069398 0.0
0.118938 -0.067951 0.0
0.146417 -0.066322 0.0
0.173397 -0.064452 0.0
0.199790 -0.062377 0.0
0.225491 -0.060133 0.0
0.250409 -0.057740 0.0
0.274481 -0.055225 0.0
0.297668 -0.052627 0.0
0.319954 -0.049992 0.0
0.341350 -0.047369 0.0
0.361888 -0.044810 0.0
0.381624 -0.042367 0.0
0.400637 -0.040086 0.0
0.419025 -0.038011 0.0
0.436903 -0.036175 0.0
0.454401 -0.034607 0.0
0.471655 -0.033319 0.0
0.488805 -0.032315 0.0
0.505986 -0.031585 0.0
0.523324 -0.031109 0.0
0.540930 -0.030852 0.0
0.558895 -0.030770 0.0
0.577287 -0.030812 0.0
0.596148 -0.030917 0.0
0.615493 -0.031018 0.0
0.635313 -0.031044 0.0
0.655579 -0.030922 0.0
0.676243 -0.030580 0.0
0.697245 -0.029953 0.0
0.718522 -0.028992 0.0
0.740003 -0.027677 0.0
0.761607 -0.026028 0.0
0.783230 -0.024113 0.0
0.804731 -0.022048 0.0
0.825915 -0.019981 0.0
0.846518 -0.018071 0.0
0.866201 -0.016440 0.0
0.884569 -0.015109 0.0
0.901273 -0.013896 0.0
0.916104 -0.012537 0.0
0.929007 -0.010807 0.0
0.940001 -0.008649 0.0
0.949075 -0.006174 0.0
0.956129 -0.003598 0.0
0.961098 -0.001140 0.0
0.964173 0.000956 0.0
0.965755 0.002337 0.0
0.966391 0.002406 0.0
0.966915 -0.001110 0.0
1.000304 0.002104 0.0
1.001300 0.005846 0.0
1.002844 0.008864 0.0
1.004572 0.011239 0.0
1.006281 0.013121 0.0
1.007879 0.014645 0.0
1.009333 0.015910 0.0
1.010635 0.016985 0.0
1.011790 0.017917 0.0
1.012806 0.018745 0.0
1.013691 0.019495 0.0
1.014452 0.020191 0.0
1.015091 0.020853 0.0
1.015611 0.021500 0.0
1.016009 0.022148 0.0
1.016280 0.022809 0.0
1.016417 0.023498 0.0
1.016412 0.024225 0.0
1.016252 0.025003 0.0
1.015924 0.025843 0.0
1.015413 0.026759 0.0
1.014703 0.027767 0.0
1.013774 0.028886 0.0
1.012608 0.030145 0.0
1.011181 0.031576 0.0
1.009469 0.033226 0.0
1.007445 0.035155 0.0
1.005080 0.037444 0.0
1.002340 0.040201 0.0
0.999184 0.043576 0.0
0.995569 0.047772 0.0
0.991435 0.053073 0.0
0.986704 0.059876 0.0
0.981255 0.068742 0.0
0.974883 0.080464 0.0
0.967213 0.096160 0.0
0.957517 0.117397 0.0
0.944357 0.146329 0.0
0.924842 0.185805 0.0
0.893147 0.239251 0.0
0.837527 0.309777 0.0
0.734677 0.396922 0.0
0.542458 0.488367 0.0
0.208667 0.524382 0.0
0.500000 -0.524592 0.0
1.000000 0.000000 0.0
1.000000 0.000000 0.0
1.000000 0.000000 0.0
1.000000 0.000000 0.0
1.000000 0.000000 0.0
0.500000 0.139139 0.0
-0.013346 -0.139300 0.0
-0.055035 -0.062991 0.0
-0.116651 0.024761 0.0
-0.179036 0.083259 0.0
-0.239831 0.115500 0.0
-0.303435 0.132443 0.0
-0.366100 0.130506 0.0
-0.422135 0.108865 0.0
-0.459710 0.070067 0.0
-0.473463 0.040580 0.0
-0.483308 0.048598 0.0
-0.502852 0.055699 0.0
-0.522432 0.055301 0.0
-0.537319 0.058794 0.0
-0.552392 0.073515 0.0
-0.573056 0.095242 0.0
-0.600966 0.120380 0.0
-0.636158 0.145608 0.0
-0.677556 0.167796 0.0
-0.723249 0.184685 0.0
-0.770942 0.195106 0.0
-0.818328 0.198851 0.0
-0.863374 0.196536 0.0
-0.904537 0.189419 0.0
-0.940904 0.179121 0.0
-0.972214 0.167315 0.0
-0.998753 0.155466 0.0
-1.021195 0.144695 0.0
-1.040427 0.135746 0.0
-1.057403 0.129008 0.0
-1.073034 0.124565 0.0
-1.088118 0.122268 0.0
-1.103303 0.121803 0.0
-1.119069 0.122751 0.0
-1.135741 0.124638 0.0
-1.153498 0.126962 0.0
-1.172387 0.129224 0.0
-1.192336 0.130945 0.0
-1.213164 0.131678 0.0
-1.234587 0.131022 0.0
-1.256221 0.128640 0.0
-1.277592 0.124263 0.0
-1.298146 0.117713 0.0
-1.317268 0.108908 0.0
-1.334317 0.097873 0.0
-1.348658 0.084746 0.0
-1.359705 0.069778 0.0
-1.366949 0.053312 0.0
-1.369970 0.035757 0.0
-1.368456 0.017548 0.0
-1.362247 -0.000872 0.0
-1.351625 -0.018841 0.0
-1.336918 -0.035812 0.0
-1.318285 -0.051598 0.0
-1.296059 -0.066006 0.0
-1.270612 -0.078931 0.0
-1.242344 -0.090332 0.0
-1.211654 -0.100231 0.0
-1.178923 -0.108702 0.0
-1.144502 -0.115856 0.0
-1.108700 -0.121826 0.0
-1.071789 -0.126753 0.0
-1.034000 -0.130783 0.0
-0.995521 -0.134058 0.0
-0.956499 -0.136708 0.0
-0.917048 -0.138839 0.0
-0.877255 -0.140523 0.0
-0.837192 -0.141802 0.0
-0.796933 -0.142674 0.0
-0.756574 -0.143114 0.0
-0.716238 -0.143086 0.0
-0.676068 -0.142595 0.0
-0.636196 -0.141671 0.0
-0.596737 -0.140348 0.0
-0.557783 -0.138673 0.0
-0.519410 -0.136637 0.0
-0.481745 -0.134163 0.0
-0.444957 -0.131284 0.0
-0.409168 -0.128133 0.0
-0.374441 -0.124835 0.0
-0.340799 -0.121528 0.0
-0.308179 -0.118395 0.0
-0.276505 -0.115401 0.0
-0.245761 -0.112506 0.0
-0.215923 -0.109794 0.0
-0.186896 -0.107399 0.0
-0.158579 -0.105332 0.0
-0.130860 -0.103746 0.0
-0.103563 -0.102738 0.0
-0.076576 -0.101857 0.0
-0.049781 -0.101274 0.0
-0.022959 -0.100948 0.0
0.003926 -0.100743 0.0
0.030471 -0.100586 0.0
0.056577 -0.100444 0.0
0.082516 -0.100234 0.0
0.108445 -0.099651 0.0
0.134460 -0.098788 0.0
0.160453 -0.097714 0.0
0.186306 -0.096293 0.0
0.211929 -0.094544 0.0
0.237188 -0.092468 0.0
0.261956 -0.090054 0.0
0.286114 -0.087326 0.0
0.309551 -0.084323 0.0
0.332171 -0.081088 0.0
0.353900 -0.077678 0.0
0.374693 -0.074154 0.0
0.394529 -0.070589 0.0
0.413420 -0.067059 0.0
0.431402 -0.063641 0.0
0.448541 -0.060411 0.0
0.464925 -0.057439 0.0
0.480669 -0.054789 0.0
0.495905 -0.052511 0.0
0.510778 -0.050643 0.0
0.525446 -0.049205 0.0
0.540067 -0.048200 0.0
0.554797 -0.047612 0.0
0.569782 -0.047406 0.0
0.585152 -0.047531 0.0
0.601016 -0.047920 0.0
0.617459 -0.048497 0.0
0.634539 -0.049173 0.0
0.652290 -0.049857 0.0
0.670719 -0.050453 0.0
0.689809 -0.050869 0.0
0.709530 -0.051017 0.0
0.729834 -0.050823 0.0
0.750667 -0.050231 0.0
0.771961 -0.049213 0.0
0.793640 -0.047774 0.0
0.815605 -0.045955 0.0
0.837728 -0.043831 0.0
0.859841 -0.041496 0.0
0.881728 -0.039046 0.0
0.903132 -0.036550 0.0
0.923774 -0.034009 0.0
0.943408 -0.031334 0.0
0.961871 -0.028393 0.0
0.979088 -0.025071 0.0
0.995041 -0.021333 0.0
1.009718 -0.017241 0.0
1.023071 -0.012937 0.0
1.034973 -0.008672 0.0
1.045193 -0.004806 0.0
1.053487 -0.001776 0.0
1.059634 -0.000264 0.0
1.062816 -0.002147 0.0
1.000169 0.001631 0.0
1.000772 0.004719 0.0
1.001796 0.007423 0.0
1.003039 0.009709 0.0
1.004353 0.011628 0.0
1.005647 0.013246 0.0
1.006874 0.014629 0.0
1.008012 0.015826 0.0
1.009053 0.016880 0.0
1.009998 0.017822 0.0
1.010849 0.018681 0.0
1.011611 0.019482 0.0
1.012286 0.020247 0.0
1.012877 0.020996 0.0
1.013383 0.021748 0.0
1.013801 0.022519 0.0
1.014128 0.023323 0.0
1.014359 0.024175 0.0
1.014488 0.025086 0.0
1.014506 0.026070 0.0
1.014406 0.027142 0.0
1.014181 0.028319 0.0
1.013822 0.029621 0.0
1.013323 0.031076 0.0
1.012678 0.032716 0.0
1.011887 0.034589 0.0
1.010951 0.036751 0.0
1.009881 0.039282 0.0
1.008698 0.042286 0.0
1.007441 0.045903 0.0
1.006174 0.050328 0.0
1.004994 0.055830 0.0
1.004051 0.062794 0.0
1.003552 0.071772 0.0
1.003779 0.083580 0.0
1.005059 0.099433 0.0
1.007691 0.121187 0.0
1.011672 0.151718 0.0
1.016023 0.195581 0.0
1.017066 0.260126 0.0
1.004213 0.357375 0.0
0.949602 0.506786 0.0
0.783221 0.737104 0.0
0.329804 1.062853 0.0
0.500000 -1.063228 0.0
1.000000 0.000000 0.0
1.000000 0.000000 0.0
1.000000 0.000000 0.0
1.000000 0.000000 0.0
1.000000 0.000000 0.0
0.500000 0.080739 0.0
-0.045018 -0.080935 0.0
-0.135441 0.010756 0.0
-0.215662 0.092853 0.0
-0.285103 0.146993 0.0
-0.354707 0.182164 0.0
-0.425131 0.199807 0.0
-0.496441 0.197117 0.0
-0.563968 0.165815 0.0
-0.599328 0.086052 0.0
-0.577138 0.016159 0.0
-0.559120 0.064846 0.0
-0.581834 0.081709 0.0
-0.600664 0.067701 0.0
-0.601642 0.062258 0.0
-0.600764 0.084247 0.0
-0.610173 0.114583 0.0
-0.629630 0.148405 0.0
-0.658438 0.181584 0.0
-0.694832 0.209613 0.0
-0.735897 0.229626 0.0
-0.778461 0.240421 0.0
-0.819588 0.242050 0.0
-0.856825 0.235622 0.0
-0.888441 0.223112 0.0
-0.913622 0.206975 0.0
-0.932470 0.189619 0.0
-0.945789 0.173021 0.0
-0.954784 0.158577 0.0
-0.960802 0.147114 0.0
-0.965150 0.138964 0.0
-0.968979 0.134068 0.0
-0.973211 0.132082 0.0
-0.978529 0.132491 0.0
-0.985393 0.134693 0.0
-0.994073 0.138049 0.0
-1.004686 0.141920 0.0
-1.017220 0.145688 0.0
-1.031552 0.148762 0.0
-1.047458 0.150595 0.0
-1.064613 0.150684 0.0
-1.082595 0.148594 0.0
-1.100881 0.143967 0.0
-1.118862 0.136545 0.0
-1.135854 0.126191 0.0
-1.151119 0.112904 0.0
-1.163900 0.096837 0.0
-1.173472 0.078308 0.0
-1.179231 0.057785 0.0
-1.180770 0.035843 0.0
-1.177902 0.013080 0.0
-1.170548 -0.009967 0.0
-1.158837 -0.032079 0.0
-1.143056 -0.053064 0.0
-1.123486 -0.072549 0.0
-1.100479 -0.090289 0.0
-1.074429 -0.106144 0.0
-1.045753 -0.120062 0.0
-1.014867 -0.132077 0.0
-0.982157 -0.142297 0.0
-0.947970 -0.150871 0.0
-0.912604 -0.157978 0.0
-0.876313 -0.163804 0.0
-0.839308 -0.168527 0.0
-0.801762 -0.172340 0.0
-0.763796 -0.175414 0.0
-0.725494 -0.177886 0.0
-0.686917 -0.179848 0.0
-0.648106 -0.181351 0.0
-0.609105 -0.182384 0.0
-0.569977 -0.182892 0.0
-0.530850 -0.182770 0.0
-0.491903 -0.182027 0.0
-0.453288 -0.180726 0.0
-0.415146 -0.178895 0.0
-0.377587 -0.176640 0.0
-0.340675 -0.173955 0.0
-0.304562 -0.170623 0.0
-0.269475 -0.166699 0.0
-0.235540 -0.162443 0.0
-0.202791 -0.158001 0.0
-0.171248 -0.153547 0.0
-0.140849 -0.149395 0.0
-0.111573 -0.145352 0.0
-0.083468 -0.141404 0.0
-0.056457 -0.137745 0.0
-0.030331 -0.134601 0.0
-0.004796 -0.131982 0.0
0.020314 -0.129924 0.0
0.044681 -0.128224 0.0
0.068250 -0.126927 0.0
0.091388 -0.126137 0.0
0.114234 -0.125753 0.0
0.136923 -0.125511 0.0
0.159717 -0.125157 0.0
0.182695 -0.124958 0.0
0.205754 -0.124718 0.0
0.228897 -0.124241 0.0
0.252136 -0.123453 0.0
0.275409 -0.122316 0.0
0.298623 -0.120759 0.0
0.321674 -0.118752 0.0
0.344436 -0.116281 0.0
0.366774 -0.113346 0.0
0.388555 -0.109972 0.0
0.409647 -0.106206 0.0
0.429932 -0.102110 0.0
0.449309 -0.097763 0.0
0.467705 -0.093257 0.0
0.485075 -0.088692 0.0
0.501407 -0.084177 0.0
0.516723 -0.079820 0.0
0.531080 -0.075726 0.0
0.544566 -0.071995 0.0
0.557301 -0.068712 0.0
0.569429 -0.065951 0.0
0.581117 -0.063763 0.0
0.592542 -0.062177 0.0
0.603892 -0.061198 0.0
0.615349 -0.060801 0.0
0.627086 -0.060939 0.0
0.639262 -0.061542 0.0
0.652011 -0.062521 0.0
0.665442 -0.063770 0.0
0.679637 -0.065176 0.0
0.694650 -0.066618 0.0
0.710507 -0.067977 0.0
0.727206 -0.069136 0.0
0.744727 -0.069991 0.0
0.763025 -0.070453 0.0
0.782043 -0.070451 0.0
0.801700 -0.069945 0.0
0.821901 -0.068921 0.0
0.842524 -0.067396 0.0
0.863420 -0.065410 0.0
0.884411 -0.063020 0.0
0.905286 -0.060285 0.0
0.925815 -0.057244 0.0
0.945765 -0.053906 0.0
0.964929 -0.050236 0.0
0.983154 -0.046180 0.0
1.000349 -0.041695 0.0
1.016470 -0.036783 0.0
1.031497 -0.031495 0.0
1.045403 -0.025941 0.0
1.058128 -0.020296 0.0
1.069536 -0.014811 0.0
1.079328 -0.009857 0.0
1.086908 -0.005909 0.0
1.090848 -0.003623 0.0
1.000107 0.001355 0.0
1.000507 0.003992 0.0
1.001222 0.006412 0.0
1.002138 0.008562 0.0
1.003155 0.010445 0.0
1.004200 0.012090 0.0
1.005226 0.013533 0.0
1.006204 0.014807 0.0
1.007121 0.015942 0.0
1.007970 0.016966 0.0
1.008749 0.017906 0.0
1.009460 0.018785 0.0
1.010103 0.019626 0.0
1.010678 0.020452 0.0
1.011184 0.021281 0.0
1.011619 0.022132 0.0
1.011981 0.023021 0.0
1.012266 0.023961 0.0
1.012469 0.024968 0.0
1.012586 0.026053 0.0
1.012615 0.027231 0.0
1.012552 0.028519 0.0
1.012396 0.029936 0.0
1.012150 0.031506 0.0
1.011819 0.033260 0.0
1.011418 0.035238 0.0
1.010968 0.037488 0.0
1.010507 0.040077 0.0
1.010093 0.043088 0.0
1.009818 0.046633 0.0
1.009823 0.050861 0.0
1.010319 0.055979 0.0
1.011630 0.062278 0.0
1.014232 0.070183 0.0
1.018836 0.080339 0.0
1.026476 0.093754 0.0
1.038630 0.112081 0.0
1.057337 0.138135 0.0
1.085224 0.176927 0.0
1.125134 0.237827 0.0
1.178369 0.339292 0.0
1.237470 0.520378 0.0
1.268890 0.858472 0.0
0.635568 1.776239 0.0
-1.828072 -0.696570 0.0
-3.625374 0.000000 0.0
-3.584612 0.000000 0.0
-3.565198 0.000000 0.0
-3.538948 0.000000 0.0
-3.487450 0.000000 0.0
-1.726391 0.017853 0.0
-0.077916 0.033034 0.0
-0.210809 0.111138 0.0
-0.309037 0.170920 0.0
-0.386482 0.215811 0.0
-0.449152 0.245619 0.0
-0.503325 0.260950 0.0
-0.558204 0.262164 0.0
-0.632481 0.242573 0.0
-0.664599 0.076773 0.0
-0.584850 -0.076501 0.0
-0.544239 0.098877 0.0
-0.606388 0.132542 0.0
-0.637629 0.066939 0.0
-0.608055 0.034422 0.0
-0.578697 0.081847 0.0
-0.576761 0.124455 0.0
-0.588298 0.169528 0.0
-0.612519 0.213490 0.0
-0.647119 0.248700 0.0
-0.687335 0.271820 0.0
-0.728651 0.282107 0.0
-0.767257 0.280096 0.0
-0.799988 0.267544 0.0
-0.824654 0.247473 0.0
-0.840479 0.223619 0.0
-0.848105 0.199448 0.0
-0.849119 0.177524 0.0
-0.845485 0.159434 0.0
-0.839162 0.145952 0.0
-0.831900 0.137213 0.0
-0.825120 0.132868 0.0
-0.819858 0.132252 0.0
-0.816783 0.134564 0.0
-0.816269 0.138969 0.0
-0.818467 0.144652 0.0
-0.823377 0.150840 0.0
-0.830885 0.156810 0.0
-0.840796 0.161883 0.0
-0.852839 0.165423 0.0
-0.866664 0.166836 0.0
-0.881827 0.165587 0.0
-0.897788 0.161221 0.0
-0.913907 0.153391 0.0
-0.929458 0.141888 0.0
-0.943654 0.126667 0.0
-0.955679 0.107879 0.0
-0.964731 0.085890 0.0
-0.970071 0.061303 0.0
-0.971143 0.034936 0.0
-0.967708 0.007684 0.0
-0.959910 -0.019724 0.0
-0.947886 -0.046057 0.0
-0.931784 -0.070969 0.0
-0.911963 -0.094034 0.0
-0.888809 -0.114964 0.0
-0.862744 -0.133585 0.0
-0.834219 -0.149822 0.0
-0.803681 -0.163742 0.0
-0.771532 -0.175491 0.0
-0.738120 -0.185276 0.0
-0.703721 -0.193336 0.0
-0.668551 -0.199907 0.0
-0.632795 -0.205184 0.0
-0.596597 -0.209427 0.0
-0.560033 -0.212857 0.0
-0.523141 -0.215636 0.0
-0.485949 -0.217867 0.0
-0.448481 -0.219611 0.0
-0.410765 -0.220842 0.0
-0.372810 -0.221518 0.0
-0.334715 -0.221365 0.0
-0.296695 -0.220399 0.0
-0.258915 -0.218750 0.0
-0.221535 -0.216392 0.0
-0.184758 -0.213479 0.0
-0.148748 -0.210039 0.0
-0.113701 -0.205698 0.0
-0.079864 -0.200548 0.0
-0.047313 -0.195080 0.0
-0.015975 -0.189451 0.0
0.014195 -0.183810 0.0
0.042948 -0.178285 0.0
0.070078 -0.172867 0.0
0.095748 -0.167663 0.0
0.120174 -0.162924 0.0
0.143493 -0.158867 0.0
0.165778 -0.155536 0.0
0.187138 -0.152841 0.0
0.207925 -0.150461 0.0
0.228416 -0.148751 0.0
0.248627 -0.147661 0.0
0.268607 -0.147055 0.0
0.288453 -0.146744 0.0
0.308291 -0.146555 0.0
0.328187 -0.146434 0.0
0.348133 -0.146246 0.0
0.368114 -0.145837 0.0
0.388110 -0.145090 0.0
0.408073 -0.143915 0.0
0.427938 -0.142239 0.0
0.447623 -0.140010 0.0
0.467039 -0.137201 0.0
0.486087 -0.133811 0.0
0.504662 -0.129863 0.0
0.522658 -0.125404 0.0
0.539969 -0.120507 0.0
0.556492 -0.115267 0.0
0.572141 -0.109797 0.0
0.586845 -0.104225 0.0
0.600558 -0.098690 0.0
0.613266 -0.093333 0.0
0.624990 -0.088294 0.0
0.635785 -0.083708 0.0
0.645746 -0.079694 0.0
0.655002 -0.076353 0.0
0.663713 -0.073759 0.0
0.672062 -0.071955 0.0
0.680243 -0.070951 0.0
0.688457 -0.070718 0.0
0.696894 -0.071197 0.0
0.705730 -0.072296 0.0
0.715118 -0.073904 0.0
0.725185 -0.075886 0.0
0.736031 -0.078102 0.0
0.747727 -0.080402 0.0
0.760318 -0.082640 0.0
0.773825 -0.084678 0.0
0.788245 -0.086390 0.0
0.803560 -0.087667 0.0
0.819731 -0.088424 0.0
0.836699 -0.088599 0.0
0.854386 -0.088155 0.0
0.872683 -0.087082 0.0
0.891454 -0.085390 0.0
0.910527 -0.083103 0.0
0.929700 -0.080250 0.0
0.948749 -0.076856 0.0
0.967439 -0.072934 0.0
0.985550 -0.068483 0.0
1.002891 -0.063500 0.0
1.019314 -0.057993 0.0
1.034706 -0.051999 0.0
1.048984 -0.045582 0.0
1.062068 -0.038844 0.0