# vtk DataFile Version 3.0
Vector Field
ASCII
DATASET RECTILINEAR_GRID
DIMENSIONS 200 50 1
X_COORDINATES 200 double
0.050000 0.150000 0.250000 0.350000 0.450000 0.550000 0.650000 0.750000 0.850000 0.950000 1.050000 1.150000 1.250000 1.350000 1.450000 1.550000 1.650000 1.750000 1.850000 1.950000 2.050000 2.150000 2.250000 2.350000 2.450000 2.550000 2.650000 2.750000 2.850000 2.950000 3.050000 3.150000 3.250000 3.350000 3.450000 3.550000 3.650000 3.750000 3.850000 3.950000 4.050000 4.150000 4.250000 4.350000 4.450000 4.550000 4.650000 4.750000 4.850000 4.950000 5.050000 5.150000 5.250000 5.350000 5.450000 5.550000 5.650000 5.750000 5.850000 5.950000 6.050000 6.150000 6.250000 6.350000 6.450000 6.550000 6.650000 6.750000 6.850000 6.950000 7.050000 7.150000 7.250000 7.350000 7.450000 7.550000 7.650000 7.750000 7.850000 7.950000 8.050000 8.150000 8.250000 8.350000 8.450000 8.550000 8.650000 8.750000 8.850000 8.950000 9.050000 9.150000 9.250000 9.350000 9.450000 9.550000 9.650000 9.750000 9.850000 9.950000 10.050000 10.150000 10.250000 10.350000 10.450000 10.550000 10.650000 10.750000 10.850000 10.950000 11.050000 11.150000 11.250000 11.350000 11.450000 11.550000 11.650000 11.750000 11.850000 11.950000 12.050000 12.150000 12.250000 12.350000 12.450000 12.550000 12.650000 12.750000 12.850000 12.950000 13.050000 13.150000 13.250000 13.350000 13.450000 13.550000 13.650000 13.750000 13.850000 13.950000 14.050000 14.150000 14.250000 14.350000 14.450000 14.550000 14.650000 14.750000 14.850000 14.950000 15.050000 15.150000 15.250000 15.350000 15.450000 15.550000 15.650000 15.750000 15.850000 15.950000 16.050000 16.150000 16.250000 16.350000 16.450000 16.550000 16.650000 16.750000 16.850000 16.950000 17.050000 17.150000 17.250000 17.350000 17.450000 17.550000 17.650000 17.750000 17.850000 17.950000 18.050000 18.150000 18.250000 18.350000 18.450000 18.550000 18.650000 18.750000 18.850000 18.950000 19.050000 19.150000 19.250000 19.350000 19.450000 19.550000 19.650000 19.750000 19.850000 19.950000 
Y_COORDINATES 50 double
0.050000 0.150000 0.250000 0.350000 0.450000 0.550000 0.650000 0.750000 0.850000 0.950000 1.050000 1.150000 1.250000 1.350000 1.450000 1.550000 1.650000 1.750000 1.850000 1.950000 2.050000 2.150000 2.250000 2.350000 2.450000 2.550000 2.650000 2.750000 2.850000 2.950000 3.050000 3.150000 3.250000 3.350000 3.450000 3.550000 3.650000 3.750000 3.850000 3.950000 4.050000 4.150000 4.250000 4.350000 4.450000 4.550000 4.650000 4.750000 4.850000 4.950000 
Z_COORDINATES 1 double
0.0
POINT_DATA 10000
VECTORS Vektorfeld double
0.996416 0.003584 0.0
0.986625 0.006208 0.0
0.973095 0.007322 0.0
0.957914 0.007859 0.0
0.941914 0.008141 0.0
0.925479 0.008294 0.0
0.908811 0.008375 0.0
0.892023 0.008413 0.0
0.875187 0.008424 0.0
0.858345 0.008418 0.0
0.841525 0.008402 0.0
0.824743 0.008380 0.0
0.808007 0.008356 0.0
0.791320 0.008331 0.0
0.774682 0.008307 0.0
0.758088 0.008286 0.0
0.741532 0.008269 0.0
0.725006 0.008257 0.0
0.708496 0.008252 0.0
0.691988 0.008256 0.0
0.675461 0.008271 0.0
0.658889 0.008300 0.0
0.642241 0.008348 0.0
0.625472 0.008420 0.0
0.608529 0.008523 0.0
0.591342 0.008665 0.0
0.573819 0.008857 0.0
0.555846 0.009116 0.0
0.537269 0.009460 0.0
0.517892 0.009917 0.0
0.497451 0.010523 0.0
0.475600 0.011328 0.0
0.451872 0.012399 0.0
0.425645 0.013827 0.0
0.396088 0.015730 0.0
0.362106 0.018252 0.0
0.322291 0.021563 0.0
0.274911 0.025817 0.0
0.218014 0.031079 0.0
0.149781 0.037154 0.0
0.069154 0.043473 0.0
-0.019752 0.045432 0.0
-0.082680 0.017496 0.0
-0.050088 -0.050088 0.0
0.500000 0.050088 0.0
1.000000 0.000000 0.0
1.000000 0.000000 0.0
1.000000 0.000000 0.0
1.000000 0.000000 0.0
1.000000 0.000000 0.0
0.500000 0.036221 0.0
0.036231 -0.036231 0.0
0.094389 -0.021927 0.0
0.123074 -0.006757 0.0
0.128089 0.001741 0.0
0.119597 0.006751 0.0
0.104516 0.008329 0.0
0.090268 0.005919 0.0
0.083028 0.001322 0.0
0.082056 -0.000349 0.0
0.080957 0.001448 0.0
0.074929 0.004580 0.0
0.062413 0.007935 0.0
0.043871 0.010607 0.0
0.020961 0.012302 0.0
-0.004255 0.012913 0.0
-0.029491 0.012323 0.0
-0.052387 0.010573 0.0
-0.071006 0.008046 0.0
-0.084311 0.005259 0.0
-0.092208 0.002638 0.0
-0.095459 0.000613 0.0
-0.095987 -0.000086 0.0
-0.097387 0.001487 0.0
-0.103246 0.004372 0.0
-0.115086 0.007469 0.0
-0.133609 0.011054 0.0
-0.159867 0.015203 0.0
-0.194660 0.019590 0.0
-0.238063 0.023813 0.0
-0.289501 0.027625 0.0
-0.347978 0.030852 0.0
-0.412222 0.033392 0.0
-0.480814 0.035199 0.0
-0.552285 0.036272 0.0
-0.625203 0.036646 0.0
-0.698229 0.036380 0.0
-0.770161 0.035552 0.0
-0.839958 0.034245 0.0
-0.906752 0.032549 0.0
-0.969849 0.030548 0.0
-1.028720 0.028323 0.0
-1.082992 0.025948 0.0
-1.132427 0.023487 0.0
-1.176909 0.020995 0.0
-1.216423 0.018519 0.0
-1.251036 0.016095 0.0
-1.280882 0.013752 0.0
-1.306146 0.011512 0.0
-1.327047 0.009390 0.0
-1.343830 0.007393 0.0
-1.356742 0.005520 0.0
-1.366027 0.003764 0.0
-1.371903 0.002112 0.0
-1.374562 0.000547 0.0
-1.374168 -0.000941 0.0
-1.370812 -0.002415 0.0
-1.364555 -0.003841 0.0
-1.355488 -0.005226 0.0
-1.343683 -0.006579 0.0
-1.329197 -0.007906 0.0
-1.312087 -0.009205 0.0
-1.292413 -0.010469 0.0
-1.270254 -0.011690 0.0
-1.245710 -0.012855 0.0
-1.218907 -0.013948 0.0
-1.190003 -0.014956 0.0
-1.159182 -0.015865 0.0
-1.126649 -0.016668 0.0
-1.092619 -0.017361 0.0
-1.057312 -0.017945 0.0
-1.020946 -0.018421 0.0
-0.983735 -0.018790 0.0
-0.945894 -0.019052 0.0
-0.907625 -0.019216 0.0
-0.869110 -0.019299 0.0
-0.830491 -0.019320 0.0
-0.791872 -0.019298 0.0
-0.753332 -0.019242 0.0
-0.714931 -0.019160 0.0
-0.676699 -0.019072 0.0
-0.638625 -0.019002 0.0
-0.600662 -0.018961 0.0
-0.562763 -0.018938 0.0
-0.524906 -0.018919 0.0
-0.487039 -0.018948 0.0
-0.449011 -0.019079 0.0
-0.410619 -0.019314 0.0
-0.371832 -0.019473 0.0
-0.332820 -0.019539 0.0
-0.293675 -0.019606 0.0
-0.254188 -0.019882 0.0
-0.214183 -0.020123 0.0
-0.173959 -0.020101 0.0
-0.133994 -0.019865 0.0
-0.094097 -0.020032 0.0
-0.053933 -0.020131 0.0
-0.013642 -0.020160 0.0
0.026024 -0.019506 0.0
0.064222 -0.018692 0.0
0.100811 -0.017897 0.0
0.135713 -0.017005 0.0
0.168734 -0.016015 0.0
0.199723 -0.014974 0.0
0.228615 -0.013918 0.0
0.255400 -0.012867 0.0
0.280100 -0.011834 0.0
0.302766 -0.010832 0.0
0.323472 -0.009874 0.0
0.342322 -0.008975 0.0
0.359444 -0.008147 0.0
0.374989 -0.007399 0.0
0.389127 -0.006739 0.0
0.402037 -0.006171 0.0
0.413903 -0.005695 0.0
0.424907 -0.005309 0.0
0.435224 -0.005008 0.0
0.445014 -0.004783 0.0
0.454423 -0.004625 0.0
0.463571 -0.004523 0.0
0.472558 -0.004463 0.0
0.481454 -0.004433 0.0
0.490306 -0.004418 0.0
0.499130 -0.004406 0.0
0.507921 -0.004385 0.0
0.516649 -0.004344 0.0
0.525269 -0.004277 0.0
0.533725 -0.004179 0.0
0.541953 -0.004049 0.0
0.549891 -0.003889 0.0
0.557475 -0.003696 0.0
0.564641 -0.003470 0.0
0.571321 -0.003209 0.0
0.577441 -0.002911 0.0
0.582932 -0.002580 0.0
0.587737 -0.002224 0.0
0.591813 -0.001853 0.0
0.595147 -0.001481 0.0
0.597747 -0.001120 0.0
0.599645 -0.000778 0.0
0.600882 -0.000460 0.0
0.601506 -0.000164 0.0
0.601548 0.000123 0.0
0.601015 0.000410 0.0
0.599911 0.000694 0.0
0.598244 0.000973 0.0
0.596026 0.001245 0.0
0.593309 0.001472 0.0
0.590343 0.001494 0.0
0.587765 0.001084 0.0
1.001712 0.005456 0.0
1.005182 0.010657 0.0
1.008168 0.013417 0.0
1.010077 0.015036 0.0
1.010971 0.016069 0.0
1.010999 0.016772 0.0
1.010288 0.017276 0.0
1.008934 0.017653 0.0
1.007006 0.017947 0.0
1.004557 0.018185 0.0
1.001625 0.018387 0.0
0.998237 0.018565 0.0
0.994414 0.018730 0.0
0.990170 0.018887 0.0
0.985516 0.019043 0.0
0.980459 0.019202 0.0
0.975001 0.019367 0.0
0.969142 0.019544 0.0
0.962879 0.019738 0.0
0.956204 0.019954 0.0
0.949102 0.020201 0.0
0.941556 0.020488 0.0
0.933536 0.020829 0.0
0.925005 0.021239 0.0
0.915912 0.021739 0.0
0.906191 0.022357 0.0
0.895752 0.023126 0.0
0.884479 0.024093 0.0
0.872219 0.025319 0.0
0.858770 0.026885 0.0
0.843861 0.028905 0.0
0.827129 0.031531 0.0
0.808081 0.034973 0.0
0.786049 0.039513 0.0
0.760125 0.045525 0.0
0.729078 0.053485 0.0
0.691265 0.063959 0.0
0.644542 0.077524 0.0
0.586265 0.094546 0.0
0.513572 0.114613 0.0
0.424881 0.135333 0.0
0.322129 0.145229 0.0
0.200445 0.102312 0.0
0.066562 -0.033614 0.0
0.500000 0.033612 0.0
1.000000 0.000000 0.0
1.000000 0.000000 0.0
1.000000 0.000000 0.0
1.000000 0.000000 0.0
1.000000 0.000000 0.0
0.500000 0.102764 0.0
0.030328 -0.102791 0.0
0.080413 -0.063610 0.0
0.107131 -0.020476 0.0
0.114615 0.002961 0.0
0.107955 0.020685 0.0
0.088669 0.028762 0.0
0.062011 0.026393 0.0
0.030610 0.019489 0.0
-0.002394 0.015460 0.0
-0.033956 0.018299 0.0
-0.066516 0.026318 0.0
-0.103179 0.035376 0.0
-0.144263 0.042793 0.0
-0.188900 0.047664 0.0
-0.235536 0.049403 0.0
-0.281956 0.047490 0.0
-0.325784 0.042130 0.0
-0.365137 0.034460 0.0
-0.398900 0.025913 0.0
-0.426785 0.017766 0.0
-0.449375 0.011325 0.0
-0.467842 0.008197 0.0
-0.483139 0.009902 0.0
-0.497029 0.015705 0.0
-0.513113 0.024060 0.0
-0.534586 0.034458 0.0
-0.562933 0.046404 0.0
-0.598698 0.058947 0.0
-0.641894 0.071056 0.0
-0.692048 0.081974 0.0
-0.748244 0.091176 0.0
-0.809269 0.098339 0.0
-0.873744 0.103319 0.0
-0.940232 0.106111 0.0
-1.007329 0.106820 0.0
-1.073725 0.105628 0.0
-1.138253 0.102764 0.0
-1.199909 0.098486 0.0
-1.257865 0.093059 0.0
-1.311470 0.086740 0.0
-1.360242 0.079773 0.0
-1.403849 0.072377 0.0
-1.442100 0.064744 0.0
-1.474921 0.057040 0.0
-1.502336 0.049402 0.0
-1.524452 0.041939 0.0
-1.541435 0.034736 0.0
-1.553498 0.027854 0.0
-1.560887 0.021338 0.0
-1.563868 0.015208 0.0
-1.562712 0.009461 0.0
-1.557670 0.004066 0.0
-1.549107 -0.000876 0.0
-1.537541 -0.005371 0.0
-1.523377 -0.009580 0.0
-1.506885 -0.013625 0.0
-1.488234 -0.017540 0.0
-1.467464 -0.021365 0.0
-1.444582 -0.025128 0.0
-1.419590 -0.028836 0.0
-1.392494 -0.032481 0.0
-1.363318 -0.036042 0.0
-1.332108 -0.039487 0.0
-1.298934 -0.042776 0.0
-1.263898 -0.045865 0.0
-1.227132 -0.048708 0.0
-1.188800 -0.051267 0.0
-1.149082 -0.053518 0.0
-1.108171 -0.055452 0.0
-1.066260 -0.057072 0.0
-1.023538 -0.058383 0.0
-0.980194 -0.059383 0.0
-0.936421 -0.060073 0.0
-0.892406 -0.060479 0.0
-0.848307 -0.060651 0.0
-0.804241 -0.060654 0.0
-0.760280 -0.060544 0.0
-0.716485 -0.060332 0.0
-0.672919 -0.060038 0.0
-0.629614 -0.059731 0.0
-0.586545 -0.059486 0.0
-0.543621 -0.059363 0.0
-0.500758 -0.059298 0.0
-0.457965 -0.059209 0.0
-0.415240 -0.059250 0.0
-0.372453 -0.059592 0.0
-0.329308 -0.060339 0.0
-0.285745 -0.060797 0.0
-0.241964 -0.061007 0.0
-0.198044 -0.061202 0.0
-0.153800 -0.062017 0.0
-0.109082 -0.062710 0.0
-0.064018 -0.062802 0.0
-0.018241 -0.062907 0.0
0.027540 -0.062668 0.0
0.071880 -0.061999 0.0
0.114509 -0.061213 0.0
0.155839 -0.059448 0.0
0.196161 -0.057270 0.0
0.235181 -0.054928 0.0
0.272625 -0.052321 0.0
0.308377 -0.049472 0.0
0.342337 -0.046467 0.0
0.374403 -0.043384 0.0
0.404502 -0.040284 0.0
0.432601 -0.037216 0.0
0.458714 -0.034229 0.0
0.482899 -0.031369 0.0
0.505247 -0.028679 0.0
0.525882 -0.026200 0.0
0.544952 -0.023961 0.0
0.562621 -0.021985 0.0
0.579070 -0.020285 0.0
0.594488 -0.018865 0.0
0.609064 -0.017719 0.0
0.622985 -0.016835 0.0
0.636428 -0.016190 0.0
0.649558 -0.015756 0.0
0.662519 -0.015502 0.0
0.675435 -0.015388 0.0
0.688406 -0.015376 0.0
0.701503 -0.015424 0.0
0.714771 -0.015493 0.0
0.728226 -0.015544 0.0
0.741857 -0.015544 0.0
0.755625 -0.015465 0.0
0.769465 -0.015286 0.0
0.783285 -0.014992 0.0
0.796973 -0.014572 0.0
0.810391 -0.014015 0.0
0.823389 -0.013315 0.0
0.835811 -0.012465 0.0
0.847506 -0.011470 0.0
0.858342 -0.010348 0.0
0.868213 -0.009132 0.0
0.877056 -0.007864 0.0
0.884847 -0.006594 0.0
0.891606 -0.005365 0.0
0.897381 -0.004205 0.0
0.902243 -0.003132 0.0
0.906271 -0.002143 0.0
0.909552 -0.001221 0.0
0.912181 -0.000343 0.0
0.914221 0.000510 0.0
0.915679 0.001368 0.0
0.916511 0.002236 0.0
0.916661 0.003047 0.0
0.916002 0.003545 0.0
0.914170 0.003442 0.0
1.000666 0.003078 0.0
1.002513 0.007718 0.0
1.004938 0.010945 0.0
1.007327 0.013211 0.0
1.009466 0.014859 0.0
1.011311 0.016109 0.0
1.012866 0.017095 0.0
1.014151 0.017904 0.0
1.015184 0.018591 0.0
1.015979 0.019196 0.0
1.016542 0.019746 0.0
1.016877 0.020260 0.0
1.016983 0.020753 0.0
1.016855 0.021235 0.0
1.016487 0.021716 0.0
1.015871 0.022202 0.0
1.014997 0.022699 0.0
1.013852 0.023215 0.0
1.012425 0.023758 0.0
1.010698 0.024337 0.0
1.008655 0.024964 0.0
1.006273 0.025654 0.0
1.003526 0.026429 0.0
1.000383 0.027312 0.0
0.996805 0.028337 0.0
0.992743 0.029543 0.0
0.988135 0.030987 0.0
0.982904 0.032737 0.0
0.976949 0.034890 0.0
0.970139 0.037573 0.0
0.962301 0.040964 0.0
0.953202 0.045304 0.0
0.942522 0.050928 0.0
0.929812 0.058299 0.0
0.914431 0.068044 0.0
0.895441 0.081003 0.0
0.871448 0.098247 0.0
0.840354 0.121053 0.0
0.798974 0.150674 0.0
0.742504 0.187647 0.0
0.663746 0.229749 0.0
0.551228 0.266082 0.0
0.386045 0.268327 0.0
0.143675 0.176623 0.0
0.500000 -0.176627 0.0
1.000000 0.000000 0.0
1.000000 0.000000 0.0
1.000000 0.000000 0.0
1.000000 0.000000 0.0
1.000000 0.000000 0.0
0.500000 0.148521 0.0
0.015435 -0.148554 0.0
0.037444 -0.089940 0.0
0.036218 -0.019638 0.0
0.002293 0.028564 0.0
-0.049540 0.053575 0.0
-0.100790 0.066407 0.0
-0.151262 0.065878 0.0
-0.197660 0.057802 0.0
-0.236068 0.048560 0.0
-0.268274 0.048967 0.0
-0.301699 0.061634 0.0
-0.341769 0.076792 0.0
-0.388605 0.089297 0.0
-0.440423 0.097614 0.0
-0.494756 0.100422 0.0
-0.548451 0.096587 0.0
-0.598192 0.086602 0.0
-0.641338 0.072486 0.0
-0.676248 0.056560 0.0
-0.702116 0.040874 0.0
-0.719012 0.027703 0.0
-0.728308 0.019583 0.0
-0.732801 0.018307 0.0
-0.735921 0.024310 0.0
-0.740862 0.036480 0.0
-0.750216 0.052864 0.0
-0.765616 0.071745 0.0
-0.787701 0.091456 0.0
-0.816414 0.110457 0.0
-0.851212 0.127524 0.0
-0.891186 0.141795 0.0
-0.935186 0.152745 0.0
-0.981942 0.160144 0.0
-1.030162 0.163994 0.0
-1.078609 0.164481 0.0
-1.126157 0.161912 0.0
-1.171823 0.156674 0.0
-1.214786 0.149195 0.0
-1.254389 0.139909 0.0
-1.290136 0.129242 0.0
-1.321682 0.117588 0.0
-1.348817 0.105304 0.0
-1.371452 0.092702 0.0
-1.389598 0.080049 0.0
-1.403351 0.067562 0.0
-1.412868 0.055412 0.0
-1.418347 0.043726 0.0
-1.420015 0.032596 0.0
-1.418115 0.022086 0.0
-1.412904 0.012230 0.0
-1.404643 0.003021 0.0
-1.393877 -0.005302 0.0
-1.381190 -0.012759 0.0
-1.366685 -0.019561 0.0
-1.350307 -0.025931 0.0
-1.332063 -0.032009 0.0
-1.311941 -0.037930 0.0
-1.289918 -0.043769 0.0
-1.265958 -0.049566 0.0
-1.240024 -0.055323 0.0
-1.212096 -0.061017 0.0
-1.182177 -0.066602 0.0
-1.150294 -0.072020 0.0
-1.116506 -0.077205 0.0
-1.080904 -0.082075 0.0
-1.043621 -0.086547 0.0
-1.004827 -0.090554 0.0
-0.964716 -0.094060 0.0
-0.923487 -0.097050 0.0
-0.881336 -0.099536 0.0
-0.838439 -0.101537 0.0
-0.794975 -0.103037 0.0
-0.751150 -0.104017 0.0
-0.707173 -0.104526 0.0
-0.663214 -0.104662 0.0
-0.619376 -0.104547 0.0
-0.575687 -0.104301 0.0
-0.532180 -0.103878 0.0
-0.488961 -0.103277 0.0
-0.446104 -0.102653 0.0
-0.403584 -0.102153 0.0
-0.361226 -0.101979 0.0
-0.318823 -0.101948 0.0
-0.276402 -0.101774 0.0
-0.234019 -0.101792 0.0
-0.191634 -0.102222 0.0
-0.148987 -0.103501 0.0
-0.105954 -0.104231 0.0
-0.062469 -0.104839 0.0
-0.017925 -0.105836 0.0
0.027057 -0.106610 0.0
0.071206 -0.106985 0.0
0.114633 -0.107018 0.0
0.157358 -0.107193 0.0
0.199435 -0.106240 0.0
0.241214 -0.104545 0.0
0.282402 -0.102484 0.0
0.322667 -0.099772 0.0
0.361861 -0.096463 0.0
0.399770 -0.092665 0.0
0.436172 -0.088430 0.0
0.470886 -0.083828 0.0
0.503767 -0.078952 0.0
0.534703 -0.073902 0.0
0.563618 -0.068780 0.0
0.590481 -0.063682 0.0
0.615305 -0.058700 0.0
0.638146 -0.053922 0.0
0.659096 -0.049425 0.0
0.678281 -0.045275 0.0
0.695852 -0.041526 0.0
0.711980 -0.038217 0.0
0.726849 -0.035372 0.0
0.740652 -0.032999 0.0
0.753585 -0.031094 0.0
0.765838 -0.029634 0.0
0.777592 -0.028588 0.0
0.789017 -0.027912 0.0
0.800261 -0.027552 0.0
0.811453 -0.027447 0.0
0.822697 -0.027532 0.0
0.834072 -0.027740 0.0
0.845629 -0.028002 0.0
0.857391 -0.028253 0.0
0.869360 -0.028433 0.0
0.881507 -0.028490 0.0
0.893784 -0.028378 0.0
0.906123 -0.028060 0.0
0.918437 -0.027505 0.0
0.930627 -0.026690 0.0
0.942585 -0.025597 0.0
0.954199 -0.024219 0.0
0.965353 -0.022566 0.0
0.975936 -0.020671 0.0
0.985847 -0.018591 0.0
0.995005 -0.016406 0.0
1.003364 -0.014203 0.0
1.010914 -0.012064 0.0
1.017680 -0.010048 0.0
1.023715 -0.008187 0.0
1.029084 -0.006485 0.0
1.033847 -0.004923 0.0
1.038043 -0.003466 0.0
1.041691 -0.002056 0.0
1.044800 -0.000632 0.0
1.047346 0.000859 0.0
1.049179 0.002441 0.0
1.049918 0.004070 0.0
1.048658 0.006010 0.0
1.000303 0.002108 0.0
1.001298 0.005846 0.0
1.002843 0.008846 0.0
1.004578 0.011186 0.0
1.006305 0.013017 0.0
1.007937 0.014475 0.0
1.009442 0.015668 0.0
1.010814 0.016673 0.0
1.012058 0.017545 0.0
1.013178 0.018327 0.0
1.014178 0.019050 0.0
1.015060 0.019737 0.0
1.015825 0.020405 0.0
1.016469 0.021067 0.0
1.016987 0.021734 0.0
1.017374 0.022413 0.0
1.017623 0.023114 0.0
1.017724 0.023844 0.0
1.017668 0.024613 0.0
1.017445 0.025432 0.0
1.017041 0.026316 0.0
1.016443 0.027282 0.0
1.015636 0.028355 0.0
1.014602 0.029563 0.0
1.013322 0.030944 0.0
1.011772 0.032548 0.0
1.009926 0.034436 0.0
1.007754 0.036691 0.0
1.005222 0.039424 0.0
1.002288 0.042783 0.0
0.998904 0.046975 0.0
0.995011 0.052285 0.0
0.990525 0.059113 0.0
0.985324 0.068025 0.0
0.979200 0.079823 0.0
0.971773 0.095640 0.0
0.962311 0.117064 0.0
0.949363 0.146279 0.0
0.930016 0.186174 0.0
0.898400 0.240233 0.0
0.842681 0.311641 0.0
0.739392 0.399998 0.0
0.546063 0.492922 0.0
0.210081 0.530380 0.0
0.500000 -0.530387 0.0
1.000000 0.000000 0.0
1.000000 0.000000 0.0
1.000000 0.000000 0.0
1.000000 0.000000 0.0
1.000000 0.000000 0.0
0.500000 0.153026 0.0
-0.010929 -0.153060 0.0
-0.047639 -0.070733 0.0
-0.107692 0.022434 0.0
-0.169728 0.082452 0.0
-0.228764 0.110555 0.0
-0.291579 0.123493 0.0
-0.352247 0.119932 0.0
-0.403498 0.101397 0.0
-0.437034 0.076909 0.0
-0.455691 0.071480 0.0
-0.477769 0.094625 0.0
-0.513802 0.119905 0.0
-0.560074 0.139293 0.0
-0.612726 0.152087 0.0
-0.668784 0.156341 0.0
-0.724170 0.149750 0.0
-0.774202 0.133211 0.0
-0.815409 0.110230 0.0
-0.845990 0.084307 0.0
-0.864891 0.057897 0.0
-0.871613 0.034297 0.0
-0.867477 0.018149 0.0
-0.856301 0.013059 0.0
-0.843007 0.019384 0.0
-0.831685 0.035025 0.0
-0.825038 0.057026 0.0
-0.824571 0.082516 0.0
-0.830799 0.108997 0.0
-0.843555 0.134385 0.0
-0.862221 0.157061 0.0
-0.885888 0.175899 0.0
-0.913477 0.190231 0.0
-0.943844 0.199781 0.0
-0.975858 0.204591 0.0
-1.008463 0.204936 0.0
-1.040710 0.201252 0.0
-1.071782 0.194071 0.0
-1.100992 0.183971 0.0
-1.127791 0.171535 0.0
-1.151754 0.157327 0.0
-1.172574 0.141870 0.0
-1.190055 0.125638 0.0
-1.204094 0.109042 0.0
-1.214671 0.092434 0.0
-1.221836 0.076096 0.0
-1.225683 0.060243 0.0
-1.226337 0.045028 0.0
-1.223937 0.030561 0.0
-1.218641 0.016925 0.0
-1.210641 0.004180 0.0
-1.200443 -0.007387 0.0
-1.188562 -0.017540 0.0
-1.175043 -0.026727 0.0
-1.159856 -0.035286 0.0
-1.143036 -0.043404 0.0
-1.124558 -0.051258 0.0
-1.104365 -0.058995 0.0
-1.082385 -0.066707 0.0
-1.058539 -0.074435 0.0
-1.032756 -0.082171 0.0
-1.004991 -0.089862 0.0
-0.975235 -0.097432 0.0
-0.943509 -0.104798 0.0
-0.909861 -0.111864 0.0
-0.874371 -0.118508 0.0
-0.837185 -0.124584 0.0
-0.798497 -0.129998 0.0
-0.758525 -0.134700 0.0
-0.717496 -0.138668 0.0
-0.675624 -0.141941 0.0
-0.633064 -0.144589 0.0
-0.589965 -0.146548 0.0
-0.546565 -0.147733 0.0
-0.503120 -0.148232 0.0
-0.459825 -0.148210 0.0
-0.416793 -0.147869 0.0
-0.373964 -0.147497 0.0
-0.331313 -0.146840 0.0
-0.288998 -0.145848 0.0
-0.247098 -0.144840 0.0
-0.205606 -0.143977 0.0
-0.164345 -0.143773 0.0
-0.123150 -0.143752 0.0
-0.082008 -0.143534 0.0
-0.040641 -0.143782 0.0
0.001625 -0.144884 0.0
0.043912 -0.145773 0.0
0.085420 -0.146500 0.0
0.126844 -0.147478 0.0
0.168084 -0.148980 0.0
0.209295 -0.149659 0.0
0.250997 -0.149786 0.0
0.293051 -0.149698 0.0
0.335058 -0.149246 0.0
0.376812 -0.148018 0.0
0.418226 -0.145959 0.0
0.459083 -0.143116 0.0
0.499119 -0.139441 0.0
0.538088 -0.134957 0.0
0.575744 -0.129736 0.0
0.611848 -0.123865 0.0
0.646192 -0.117451 0.0
0.678605 -0.110623 0.0
0.708959 -0.103521 0.0
0.737172 -0.096289 0.0
0.763211 -0.089074 0.0
0.787090 -0.082011 0.0
0.808868 -0.075231 0.0
0.828647 -0.068845 0.0
0.846560 -0.062952 0.0
0.862770 -0.057628 0.0
0.877458 -0.052930 0.0
0.890822 -0.048891 0.0
0.903064 -0.045526 0.0
0.914389 -0.042825 0.0
0.924995 -0.040761 0.0
0.935069 -0.039289 0.0
0.944780 -0.038346 0.0
0.954277 -0.037858 0.0
0.963684 -0.037739 0.0
0.973098 -0.037897 0.0
0.982584 -0.038236 0.0
0.992183 -0.038660 0.0
1.001903 -0.039077 0.0
1.011727 -0.039401 0.0
1.021615 -0.039557 0.0
1.031505 -0.039479 0.0
1.041322 -0.039114 0.0
1.050977 -0.038420 0.0
1.060378 -0.037366 0.0
1.069430 -0.035932 0.0
1.078043 -0.034111 0.0
1.086130 -0.031917 0.0
1.093620 -0.029393 0.0
1.100455 -0.026615 0.0
1.106601 -0.023687 0.0
1.112052 -0.020731 0.0
1.116828 -0.017861 0.0
1.120977 -0.015165 0.0
1.124562 -0.012690 0.0
1.127655 -0.010444 0.0
1.130325 -0.008396 0.0
1.132625 -0.006489 0.0
1.134589 -0.004646 0.0
1.136217 -0.002780 0.0
1.137457 -0.000779 0.0
1.138179 0.001523 0.0
1.138069 0.004359 0.0
1.136339 0.008712 0.0
1.000168 0.001637 0.0
1.000770 0.004721 0.0
1.001794 0.007402 0.0
1.003043 0.009646 0.0
1.004375 0.011499 0.0
1.005702 0.013035 0.0
1.006979 0.014326 0.0
1.008187 0.015435 0.0
1.009316 0.016411 0.0
1.010363 0.017295 0.0
1.011328 0.018118 0.0
1.012210 0.018905 0.0
1.013008 0.019675 0.0
1.013719 0.020442 0.0
1.014342 0.021217 0.0
1.014873 0.022011 0.0
1.015308 0.022833 0.0
1.015641 0.023690 0.0
1.015870 0.024594 0.0
1.015988 0.025556 0.0
1.015991 0.026592 0.0
1.015873 0.027721 0.0
1.015631 0.028966 0.0
1.015259 0.030358 0.0
1.014755 0.031934 0.0
1.014119 0.033744 0.0
1.013355 0.035849 0.0
1.012472 0.038331 0.0
1.011492 0.041295 0.0
1.010453 0.044885 0.0
1.009416 0.049295 0.0
1.008478 0.054797 0.0
1.007787 0.061778 0.0
1.007552 0.070796 0.0
1.008053 0.082675 0.0
1.009623 0.098645 0.0
1.012561 0.120583 0.0
1.016871 0.151399 0.0
1.021571 0.195701 0.0
1.022970 0.260923 0.0
1.010421 0.359218 0.0
0.955884 0.510247 0.0
0.788829 0.743058 0.0
0.332297 1.072758 0.0
0.500000 -1.072779 0.0
1.000000 0.000000 0.0
1.000000 0.000000 0.0
1.000000 0.000000 0.0
1.000000 0.000000 0.0
1.000000 0.000000 0.0
0.500000 0.093953 0.0
-0.048140 -0.093991 0.0
-0.145768 0.004536 0.0
-0.229746 0.091195 0.0
-0.298853 0.144834 0.0
-0.369136 0.177492 0.0
-0.441188 0.191423 0.0
-0.511902 0.183384 0.0
-0.569562 0.146856 0.0
-0.590001 0.085425 0.0
-0.573192 0.064813 0.0
-0.569950 0.120128 0.0
-0.601747 0.162230 0.0
-0.647553 0.189047 0.0
-0.700166 0.207598 0.0
-0.758196 0.214918 0.0
-0.816547 0.204911 0.0
-0.867634 0.179169 0.0
-0.906673 0.144517 0.0
-0.932458 0.106386 0.0
-0.943802 0.066064 0.0
-0.938464 0.027514 0.0
-0.917267 -0.000401 0.0
-0.886470 -0.010364 0.0
-0.853778 -0.003179 0.0
-0.824284 0.016772 0.0
-0.800857 0.045206 0.0
-0.784890 0.077901 0.0
-0.776569 0.111520 0.0
-0.775453 0.143502 0.0
-0.780761 0.171919 0.0
-0.791516 0.195462 0.0
-0.806643 0.213383 0.0
-0.825059 0.225410 0.0
-0.845724 0.231641 0.0
-0.867679 0.232446 0.0
-0.890060 0.228371 0.0
-0.912102 0.220066 0.0
-0.933142 0.208227 0.0
-0.952616 0.193551 0.0
-0.970057 0.176714 0.0
-0.985099 0.158345 0.0
-0.997474 0.139019 0.0
-1.007016 0.119242 0.0
-1.013649 0.099445 0.0
-1.017371 0.079971 0.0
-1.018223 0.061067 0.0
-1.016260 0.042895 0.0
-1.011536 0.025569 0.0
-1.004144 0.009228 0.0
-0.994363 -0.005905 0.0
-0.982874 -0.018988 0.0
-0.970016 -0.030678 0.0
-0.955713 -0.041411 0.0
-0.940038 -0.051465 0.0
-0.922980 -0.061103 0.0
-0.904469 -0.070548 0.0
-0.884400 -0.079967 0.0
-0.862647 -0.089467 0.0
-0.839082 -0.099086 0.0
-0.813591 -0.108793 0.0
-0.786109 -0.118487 0.0
-0.756625 -0.128047 0.0
-0.725171 -0.137365 0.0
-0.691785 -0.146331 0.0
-0.656526 -0.154788 0.0
-0.619547 -0.162470 0.0
-0.581087 -0.169259 0.0
-0.541381 -0.175117 0.0
-0.500687 -0.179974 0.0
-0.459279 -0.183915 0.0
-0.417295 -0.187160 0.0
-0.374841 -0.189529 0.0
-0.332188 -0.190805 0.0
-0.289618 -0.191175 0.0
-0.247305 -0.190874 0.0
-0.205381 -0.190160 0.0
-0.163792 -0.189623 0.0
-0.122588 -0.188570 0.0
-0.081940 -0.187081 0.0
-0.041704 -0.185744 0.0
-0.001436 -0.184833 0.0
0.038707 -0.184322 0.0
0.078067 -0.183759 0.0
0.116820 -0.183421 0.0
0.155385 -0.183826 0.0
0.193489 -0.185211 0.0
0.231619 -0.185862 0.0
0.270508 -0.186807 0.0
0.310001 -0.188089 0.0
0.349918 -0.189526 0.0
0.390246 -0.190653 0.0
0.431070 -0.191317 0.0
0.472309 -0.191461 0.0
0.513753 -0.190933 0.0
0.555182 -0.189514 0.0
0.596384 -0.187078 0.0
0.637103 -0.183574 0.0
0.677056 -0.178972 0.0
0.715957 -0.173297 0.0
0.753528 -0.166623 0.0
0.789507 -0.159061 0.0
0.823663 -0.150755 0.0
0.855806 -0.141876 0.0
0.885795 -0.132611 0.0
0.913537 -0.123154 0.0
0.938993 -0.113703 0.0
0.962177 -0.104444 0.0
0.983151 -0.095551 0.0
1.002024 -0.087177 0.0
1.018943 -0.079452 0.0
1.034083 -0.072478 0.0
1.047646 -0.066331 0.0
1.059848 -0.061056 0.0
1.070913 -0.056668 0.0
1.081062 -0.053157 0.0
1.090511 -0.050485 0.0
1.099462 -0.048590 0.0
1.108094 -0.047389 0.0
1.116563 -0.046782 0.0
1.124993 -0.046653 0.0
1.133474 -0.046878 0.0
1.142061 -0.047329 0.0
1.150773 -0.047878 0.0
1.159594 -0.048401 0.0
1.168476 -0.048784 0.0
1.177344 -0.048930 0.0
1.186102 -0.048754 0.0
1.194637 -0.048190 0.0
1.202829 -0.047191 0.0
1.210557 -0.045724 0.0
1.217705 -0.043774 0.0
1.224171 -0.041346 0.0
1.229871 -0.038469 0.0
1.234746 -0.035205 0.0
1.238762 -0.031654 0.0
1.241915 -0.027948 0.0
1.244233 -0.024238 0.0
1.245766 -0.020664 0.0
1.246587 -0.017333 0.0
1.246785 -0.014305 0.0
1.246456 -0.011593 0.0
1.245703 -0.009163 0.0
1.244624 -0.006943 0.0
1.243306 -0.004838 0.0
1.241821 -0.002731 0.0
1.240198 -0.000444 0.0
1.238376 0.002289 0.0
1.236229 0.005851 0.0
1.233446 0.011732 0.0
1.000106 0.001363 0.0
1.000504 0.003995 0.0
1.001218 0.006389 0.0
1.002140 0.008487 0.0
1.003174 0.010292 0.0
1.004251 0.011837 0.0
1.005326 0.013170 0.0
1.006374 0.014336 0.0
1.007377 0.015377 0.0
1.008328 0.016331 0.0
1.009220 0.017226 0.0
1.010049 0.018087 0.0
1.010811 0.018933 0.0
1.011504 0.019779 0.0
1.012125 0.020637 0.0
1.012669 0.021517 0.0
1.013135 0.022427 0.0
1.013518 0.023378 0.0
1.013819 0.024378 0.0
1.014034 0.025439 0.0
1.014162 0.026578 0.0
1.014205 0.027810 0.0
1.014165 0.029160 0.0
1.014045 0.030655 0.0
1.013854 0.032331 0.0
1.013608 0.034230 0.0
1.013329 0.036407 0.0
1.013054 0.038931 0.0
1.012843 0.041887 0.0
1.012786 0.045390 0.0
1.013023 0.049590 0.0
1.013767 0.054695 0.0
1.015340 0.060998 0.0
1.018222 0.068928 0.0
1.023129 0.079136 0.0
1.031103 0.092641 0.0
1.043635 0.111116 0.0
1.062787 0.137404 0.0
1.091215 0.176569 0.0
1.131804 0.238068 0.0
1.185904 0.340523 0.0
1.246085 0.523298 0.0
1.278815 0.864333 0.0
0.640887 1.790314 0.0
-1.843192 -0.702543 0.0
-3.655463 0.000000 0.0
-3.614548 0.000000 0.0
-3.595137 0.000000 0.0
-3.568860 0.000000 0.0
-3.517169 0.000000 0.0
-1.741170 0.022906 0.0
-0.083283 0.028480 0.0
-0.223488 0.110948 0.0
-0.326001 0.171275 0.0
-0.409108 0.216969 0.0
-0.481190 0.247722 0.0
-0.551801 0.263857 0.0
-0.627162 0.257025 0.0
-0.697696 0.201410 0.0
-0.692980 0.046594 0.0
-0.595986 -0.010158 0.0
-0.555438 0.151309 0.0
-0.603770 0.211178 0.0
-0.655636 0.237771 0.0
-0.708114 0.263963 0.0
-0.771643 0.280111 0.0
-0.839804 0.266231 0.0
-0.896976 0.226108 0.0
-0.935707 0.175347 0.0
-0.958202 0.123837 0.0
-0.963831 0.065586 0.0
-0.944775 0.003597 0.0
-0.900839 -0.041617 0.0
-0.845174 -0.055610 0.0
-0.791217 -0.044582 0.0
-0.744588 -0.017949 0.0
-0.706198 0.018110 0.0
-0.676577 0.059408 0.0
-0.656150 0.101266 0.0
-0.644189 0.140678 0.0
-0.639649 0.175511 0.0
-0.641379 0.204356 0.0
-0.648217 0.226454 0.0
-0.659038 0.241577 0.0
-0.672796 0.249897 0.0
-0.688522 0.251871 0.0
-0.705330 0.248134 0.0
-0.722408 0.239423 0.0
-0.739020 0.226522 0.0
-0.754512 0.210222 0.0
-0.768325 0.191297 0.0
-0.780005 0.170484 0.0
-0.789219 0.148470 0.0
-0.795758 0.125871 0.0
-0.799526 0.103216 0.0
-0.800528 0.080922 0.0
-0.798829 0.059269 0.0
-0.794494 0.038395 0.0
-0.787514 0.018364 0.0
-0.777764 -0.000708 0.0
-0.766148 -0.017367 0.0
-0.753408 -0.031755 0.0
-0.739424 -0.044753 0.0
-0.724377 -0.056685 0.0
-0.708312 -0.067932 0.0
-0.691169 -0.078837 0.0
-0.672817 -0.089675 0.0
-0.653089 -0.100638 0.0
-0.631801 -0.111839 0.0
-0.608765 -0.123315 0.0
-0.583803 -0.135016 0.0
-0.556811 -0.146739 0.0
-0.527796 -0.158293 0.0
-0.496816 -0.169553 0.0
-0.463932 -0.180413 0.0
-0.429161 -0.190736 0.0
-0.392660 -0.200002 0.0
-0.354723 -0.208124 0.0
-0.315546 -0.215135 0.0
-0.275377 -0.220818 0.0
-0.234556 -0.225300 0.0
-0.193273 -0.229042 0.0
-0.151739 -0.231635 0.0
-0.110268 -0.232823 0.0
-0.069030 -0.232965 0.0
-0.028012 -0.232416 0.0
0.012927 -0.231482 0.0
0.053213 -0.230175 0.0
0.092293 -0.228301 0.0
0.130478 -0.226184 0.0
0.167965 -0.224364 0.0
0.204617 -0.223132 0.0
0.240505 -0.222054 0.0
0.276160 -0.221042 0.0
0.311924 -0.220655 0.0
0.347792 -0.221025 0.0
0.383757 -0.222081 0.0
0.420045 -0.223411 0.0
0.456960 -0.225063 0.0
0.494607 -0.226974 0.0
0.533001 -0.228952 0.0
0.572151 -0.230704 0.0
0.612042 -0.231981 0.0
0.652575 -0.232570 0.0
0.693557 -0.232251 0.0
0.734740 -0.230808 0.0
0.775835 -0.228081 0.0
0.816517 -0.223972 0.0
0.856437 -0.218447 0.0
0.895249 -0.211535 0.0
0.932623 -0.203329 0.0
0.968264 -0.193974 0.0
1.001926 -0.183659 0.0
1.033415 -0.172605 0.0
1.062597 -0.161052 0.0
1.089393 -0.149251 0.0
1.113783 -0.137452 0.0
1.135797 -0.125893 0.0
1.155516 -0.114795 0.0
1.173063 -0.104353 0.0
1.188602 -0.094733 0.0
1.202330 -0.086065 0.0
1.214468 -0.078446 0.0
1.225259 -0.071933 0.0
1.234951 -0.066547 0.0
1.243797 -0.062273 0.0
1.252042 -0.059063 0.0
1.259914 -0.056835 0.0
1.267621 -0.055483 0.0
1.275337 -0.054873 0.0
1.283203 -0.054856 0.0
1.291315 -0.055268 0.0
1.299726 -0.055937 0.0
1.308439 -0.056695 0.0
1.317410 -0.057377 0.0
1.326555 -0.057835 0.0
1.335748 -0.057941 0.0
1.344838 -0.057590 0.0
1.353655 -0.056706 0.0
1.362027 -0.055238 0.0
1.369784 -0.053161 0.0
1.376776 -0.050477 0.0
1.382878 -0.047212 0.0
1.387994 -0.043420 0.0
1.392057 -0.039192 0.0
1.395030 -0.034655 0.0
1.396901 -0.029970 0.0
1.397680 -0.025312 0.0
1.397401 -0.020844 0.0
1.396122 -0.016695 0.0
1.393927 -0.012945 0.0
1.390929 -0.009626 0.0
1.387272 -0.006719 0.0
1.383116 -0.004152 0.0
1.378599 -0.001795 0.0
1.373813 0.000497 0.0
1.368868 0.002896 0.0