# vtk DataFile Version 3.0
Vector Field
ASCII
DATASET RECTILINEAR_GRID
DIMENSIONS 200 50 1
X_COORDINATES 200 double
0.050000 0.150000 0.250000 0.350000 0.450000 0.550000 0.650000 0.750000 0.850000 0.950000 1.050000 1.150000 1.250000 1.350000 1.450000 1.550000 1.650000 1.750000 1.850000 1.950000 2.050000 2.150000 2.250000 2.350000 2.450000 2.550000 2.650000 2.750000 2.850000 2.950000 3.050000 3.150000 3.250000 3.350000 3.450000 3.550000 3.650000 3.750000 3.850000 3.950000 4.050000 4.150000 4.250000 4.350000 4.450000 4.550000 4.650000 4.750000 4.850000 4.950000 5.050000 5.150000 5.250000 5.350000 5.450000 5.550000 5.650000 5.750000 5.850000 5.950000 6.050000 6.150000 6.250000 6.350000 6.450000 6.550000 6.650000 6.750000 6.850000 6.950000 7.050000 7.150000 7.250000 7.350000 7.450000 7.550000 7.650000 7.750000 7.850000 7.950000 8.050000 8.150000 8.250000 8.350000 8.450000 8.550000 8.650000 8.750000 8.850000 8.950000 9.050000 9.150000 9.250000 9.350000 9.450000 9.550000 9.650000 9.750000 9.850000 9.950000 10.050000 10.150000 10.250000 10.350000 10.450000 10.550000 10.650000 10.750000 10.850000 10.950000 11.050000 11.150000 11.250000 11.350000 11.450000 11.550000 11.650000 11.750000 11.850000 11.950000 12.050000 12.150000 12.250000 12.350000 12.450000 12.550000 12.650000 12.750000 12.850000 12.950000 13.050000 13.150000 13.250000 13.350000 13.450000 13.550000 13.650000 13.750000 13.850000 13.950000 14.050000 14.150000 14.250000 14.350000 14.450000 14.550000 14.650000 14.750000 14.850000 14.950000 15.050000 15.150000 15.250000 15.350000 15.450000 15.550000 15.650000 15.750000 15.850000 15.950000 16.050000 16.150000 16.250000 16.350000 16.450000 16.550000 16.650000 16.750000 16.850000 16.950000 17.050000 17.150000 17.250000 17.350000 17.450000 17.550000 17.650000 17.750000 17.850000 17.950000 18.050000 18.150000 18.250000 18.350000 18.450000 18.550000 18.650000 18.750000 18.850000 18.950000 19.050000 19.150000 19.250000 19.350000 19.450000 19.550000 19.650000 19.750000 19.850000 19.950000 
Y_COORDINATES 50 double
0.050000 0.150000 0.250000 0.350000 0.450000 0.550000 0.650000 0.750000 0.850000 0.950000 1.050000 1.150000 1.250000 1.350000 1.450000 1.550000 1.650000 1.750000 1.850000 1.950000 2.050000 2.150000 2.250000 2.350000 2.450000 2.550000 2.650000 2.750000 2.850000 2.950000 3.050000 3.150000 3.250000 3.350000 3.450000 3.550000 3.650000 3.750000 3.850000 3.950000 4.050000 4.150000 4.250000 4.350000 4.450000 4.550000 4.650000 4.750000 4.850000 4.950000 
Z_COORDINATES 1 double
0.0
POINT_DATA 10000
VECTORS Vektorfeld double
0.996419 0.003580 0.0
0.986638 0.006201 0.0
0.973123 0.007315 0.0
0.957954 0.007854 0.0
0.941958 0.008141 0.0
0.925516 0.008301 0.0
0.908825 0.008390 0.0
0.892001 0.008435 0.0
0.875116 0.008450 0.0
0.858219 0.008446 0.0
0.841344 0.008428 0.0
0.824514 0.008401 0.0
0.807744 0.008369 0.0
0.791042 0.008334 0.0
0.774409 0.008299 0.0
0.757842 0.008268 0.0
0.741331 0.008242 0.0
0.724865 0.008224 0.0
0.708426 0.008215 0.0
0.691993 0.008218 0.0
0.675542 0.008234 0.0
0.659042 0.008266 0.0
0.642458 0.008318 0.0
0.625745 0.008394 0.0
0.608849 0.008502 0.0
0.591700 0.008648 0.0
0.574207 0.008845 0.0
0.556256 0.009107 0.0
0.537694 0.009455 0.0
0.518322 0.009917 0.0
0.497875 0.010530 0.0
0.476001 0.011344 0.0
0.452229 0.012428 0.0
0.425929 0.013872 0.0
0.396265 0.015793 0.0
0.362136 0.018336 0.0
0.322131 0.021668 0.0
0.274521 0.025941 0.0
0.217363 0.031216 0.0
0.148855 0.037293 0.0
0.067988 0.043574 0.0
-0.021031 0.045445 0.0
-0.084177 0.017701 0.0
-0.050939 -0.050939 0.0
0.500000 0.050950 0.0
1.000000 0.000000 0.0
1.000000 0.000000 0.0
1.000000 0.000000 0.0
1.000000 0.000000 0.0
1.000000 0.000000 0.0
0.500000 0.030620 0.0
0.030567 -0.030567 0.0
0.079910 -0.018776 0.0
0.105907 -0.007221 0.0
0.115921 -0.002793 0.0
0.125430 -0.006715 0.0
0.122519 0.009626 0.0
0.086551 0.026341 0.0
0.026181 0.034029 0.0
-0.044759 0.036911 0.0
-0.122100 0.040429 0.0
-0.207683 0.045153 0.0
-0.303189 0.050353 0.0
-0.408619 0.055077 0.0
-0.522183 0.058487 0.0
-0.640674 0.060003 0.0
-0.759993 0.059316 0.0
-0.875631 0.056322 0.0
-0.983025 0.051073 0.0
-1.077873 0.043775 0.0
-1.156463 0.034814 0.0
-1.216029 0.024752 0.0
-1.255048 0.014267 0.0
-1.273337 0.004021 0.0
-1.271779 -0.005579 0.0
-1.252392 -0.013808 0.0
-1.218415 -0.020169 0.0
-1.173537 -0.024710 0.0
-1.121140 -0.027687 0.0
-1.064046 -0.029407 0.0
-1.004486 -0.030152 0.0
-0.944185 -0.030149 0.0
-0.884470 -0.029566 0.0
-0.826378 -0.028526 0.0
-0.770723 -0.027129 0.0
-0.718134 -0.025461 0.0
-0.669065 -0.023608 0.0
-0.623808 -0.021650 0.0
-0.582500 -0.019658 0.0
-0.545153 -0.017689 0.0
-0.511679 -0.015785 0.0
-0.481919 -0.013975 0.0
-0.455663 -0.012281 0.0
-0.432662 -0.010720 0.0
-0.412637 -0.009304 0.0
-0.395295 -0.008038 0.0
-0.380333 -0.006924 0.0
-0.367454 -0.005956 0.0
-0.356371 -0.005127 0.0
-0.346812 -0.004432 0.0
-0.338516 -0.003864 0.0
-0.331236 -0.003416 0.0
-0.324739 -0.003081 0.0
-0.318810 -0.002848 0.0
-0.313259 -0.002704 0.0
-0.307917 -0.002638 0.0
-0.302636 -0.002642 0.0
-0.297286 -0.002708 0.0
-0.291752 -0.002826 0.0
-0.285938 -0.002987 0.0
-0.279772 -0.003179 0.0
-0.273206 -0.003388 0.0
-0.266220 -0.003598 0.0
-0.258830 -0.003792 0.0
-0.251084 -0.003954 0.0
-0.243061 -0.004068 0.0
-0.234877 -0.004117 0.0
-0.226672 -0.004088 0.0
-0.218612 -0.003972 0.0
-0.210877 -0.003764 0.0
-0.203645 -0.003468 0.0
-0.197087 -0.003091 0.0
-0.191350 -0.002645 0.0
-0.186563 -0.002142 0.0
-0.182836 -0.001586 0.0
-0.180267 -0.000983 0.0
-0.178941 -0.000343 0.0
-0.178905 0.000307 0.0
-0.180158 0.000946 0.0
-0.182692 0.001588 0.0
-0.186507 0.002228 0.0
-0.191590 0.002855 0.0
-0.197905 0.003459 0.0
-0.205394 0.004030 0.0
-0.213980 0.004557 0.0
-0.223570 0.005033 0.0
-0.234057 0.005453 0.0
-0.245324 0.005814 0.0
-0.257249 0.006111 0.0
-0.269706 0.006346 0.0
-0.282569 0.006517 0.0
-0.295714 0.006629 0.0
-0.309026 0.006684 0.0
-0.322398 0.006688 0.0
-0.335732 0.006646 0.0
-0.348942 0.006565 0.0
-0.361957 0.006450 0.0
-0.374714 0.006308 0.0
-0.387166 0.006145 0.0
-0.399277 0.005967 0.0
-0.411023 0.005779 0.0
-0.422389 0.005587 0.0
-0.433370 0.005394 0.0
-0.443967 0.005204 0.0
-0.454189 0.005018 0.0
-0.464048 0.004840 0.0
-0.473558 0.004670 0.0
-0.482736 0.004509 0.0
-0.491602 0.004357 0.0
-0.500172 0.004214 0.0
-0.508467 0.004080 0.0
-0.516501 0.003954 0.0
-0.524288 0.003833 0.0
-0.531839 0.003717 0.0
-0.539159 0.003603 0.0
-0.546249 0.003487 0.0
-0.553104 0.003368 0.0
-0.559714 0.003242 0.0
-0.566061 0.003106 0.0
-0.572125 0.002958 0.0
-0.577880 0.002797 0.0
-0.583299 0.002622 0.0
-0.588356 0.002434 0.0
-0.593022 0.002233 0.0
-0.597275 0.002019 0.0
-0.601088 0.001794 0.0
-0.604438 0.001556 0.0
-0.607301 0.001307 0.0
-0.609658 0.001049 0.0
-0.611491 0.000784 0.0
-0.612792 0.000517 0.0
-0.613557 0.000248 0.0
-0.613788 -0.000018 0.0
-0.613486 -0.000284 0.0
-0.612671 -0.000532 0.0
-0.611387 -0.000752 0.0
-0.609698 -0.000937 0.0
-0.607679 -0.001083 0.0
-0.605406 -0.001190 0.0
-0.602952 -0.001263 0.0
-0.600383 -0.001306 0.0
-0.597752 -0.001325 0.0
-0.595106 -0.001321 0.0
-0.592491 -0.001294 0.0
-0.589955 -0.001242 0.0
-0.587550 -0.001163 0.0
-0.585321 -0.001066 0.0
-0.583294 -0.000961 0.0
-0.581493 -0.000840 0.0
-0.580049 -0.000603 0.0
1.001715 0.005446 0.0
1.005196 0.010636 0.0
1.008196 0.013395 0.0
1.010117 0.015022 0.0
1.011015 0.016070 0.0
1.011035 0.016795 0.0
1.010300 0.017322 0.0
1.008907 0.017719 0.0
1.006930 0.018027 0.0
1.004426 0.018270 0.0
1.001439 0.018466 0.0
0.998004 0.018628 0.0
0.994147 0.018768 0.0
0.989889 0.018895 0.0
0.985241 0.019018 0.0
0.980212 0.019146 0.0
0.974801 0.019285 0.0
0.969006 0.019442 0.0
0.962818 0.019623 0.0
0.956226 0.019835 0.0
0.949211 0.020083 0.0
0.941749 0.020378 0.0
0.933811 0.020729 0.0
0.925357 0.021151 0.0
0.916335 0.021663 0.0
0.906678 0.022292 0.0
0.896299 0.023072 0.0
0.885082 0.024048 0.0
0.872872 0.025284 0.0
0.859468 0.026864 0.0
0.844595 0.028902 0.0
0.827887 0.031554 0.0
0.808848 0.035030 0.0
0.786805 0.039613 0.0
0.760843 0.045677 0.0
0.729728 0.053695 0.0
0.691815 0.064228 0.0
0.644963 0.077844 0.0
0.586539 0.094895 0.0
0.513708 0.114953 0.0
0.424917 0.135572 0.0
0.322113 0.145270 0.0
0.200790 0.102346 0.0
0.066923 -0.034956 0.0
0.500000 0.034965 0.0
1.000000 0.000000 0.0
1.000000 0.000000 0.0
1.000000 0.000000 0.0
1.000000 0.000000 0.0
1.000000 0.000000 0.0
0.500000 0.085127 0.0
0.023824 -0.084958 0.0
0.061341 -0.051246 0.0
0.080282 -0.019689 0.0
0.062385 0.017557 0.0
-0.001936 0.027747 0.0
-0.078803 0.054942 0.0
-0.147210 0.085400 0.0
-0.214289 0.102420 0.0
-0.286251 0.111423 0.0
-0.364689 0.121695 0.0
-0.449986 0.134768 0.0
-0.542563 0.148822 0.0
-0.641946 0.161421 0.0
-0.746687 0.170449 0.0
-0.854471 0.174316 0.0
-0.962132 0.171983 0.0
-1.065764 0.162925 0.0
-1.161008 0.147108 0.0
-1.243455 0.125034 0.0
-1.309122 0.097812 0.0
-1.354950 0.067148 0.0
-1.379248 0.035189 0.0
-1.382071 0.004211 0.0
-1.365512 -0.023886 0.0
-1.333404 -0.046997 0.0
-1.289875 -0.064486 0.0
-1.238435 -0.076712 0.0
-1.182020 -0.084497 0.0
-1.122956 -0.088756 0.0
-1.063018 -0.090301 0.0
-1.003546 -0.089773 0.0
-0.945565 -0.087637 0.0
-0.889880 -0.084232 0.0
-0.837126 -0.079832 0.0
-0.787782 -0.074691 0.0
-0.742166 -0.069062 0.0
-0.700441 -0.063179 0.0
-0.662631 -0.057247 0.0
-0.628654 -0.051424 0.0
-0.598359 -0.045818 0.0
-0.571559 -0.040502 0.0
-0.548039 -0.035530 0.0
-0.527569 -0.030943 0.0
-0.509901 -0.026773 0.0
-0.494776 -0.023036 0.0
-0.481928 -0.019736 0.0
-0.471089 -0.016861 0.0
-0.461998 -0.014396 0.0
-0.454399 -0.012322 0.0
-0.448047 -0.010622 0.0
-0.442711 -0.009275 0.0
-0.438177 -0.008254 0.0
-0.434255 -0.007525 0.0
-0.430779 -0.007054 0.0
-0.427597 -0.006811 0.0
-0.424576 -0.006771 0.0
-0.421596 -0.006910 0.0
-0.418554 -0.007201 0.0
-0.415365 -0.007615 0.0
-0.411967 -0.008116 0.0
-0.408319 -0.008664 0.0
-0.404411 -0.009215 0.0
-0.400254 -0.009722 0.0
-0.395889 -0.010137 0.0
-0.391381 -0.010416 0.0
-0.386816 -0.010518 0.0
-0.382298 -0.010409 0.0
-0.377945 -0.010063 0.0
-0.373885 -0.009469 0.0
-0.370251 -0.008629 0.0
-0.367176 -0.007563 0.0
-0.364791 -0.006294 0.0
-0.363221 -0.004850 0.0
-0.362576 -0.003250 0.0
-0.362944 -0.001520 0.0
-0.364385 0.000309 0.0
-0.366976 0.002211 0.0
-0.370829 0.004148 0.0
-0.376012 0.006103 0.0
-0.382527 0.008044 0.0
-0.390342 0.009937 0.0
-0.399399 0.011749 0.0
-0.409618 0.013448 0.0
-0.420901 0.015008 0.0
-0.433135 0.016406 0.0
-0.446196 0.017628 0.0
-0.459951 0.018662 0.0
-0.474266 0.019502 0.0
-0.489001 0.020147 0.0
-0.504023 0.020600 0.0
-0.519200 0.020869 0.0
-0.534410 0.020967 0.0
-0.549544 0.020910 0.0
-0.564501 0.020715 0.0
-0.579197 0.020402 0.0
-0.593559 0.019988 0.0
-0.607527 0.019495 0.0
-0.621057 0.018940 0.0
-0.634115 0.018341 0.0
-0.646681 0.017716 0.0
-0.658744 0.017079 0.0
-0.670304 0.016443 0.0
-0.681368 0.015816 0.0
-0.691948 0.015208 0.0
-0.702061 0.014622 0.0
-0.711728 0.014065 0.0
-0.720972 0.013537 0.0
-0.729818 0.013040 0.0
-0.738289 0.012574 0.0
-0.746413 0.012138 0.0
-0.754211 0.011728 0.0
-0.761706 0.011341 0.0
-0.768915 0.010970 0.0
-0.775852 0.010608 0.0
-0.782525 0.010246 0.0
-0.788934 0.009875 0.0
-0.795075 0.009485 0.0
-0.800934 0.009068 0.0
-0.806490 0.008615 0.0
-0.811715 0.008120 0.0
-0.816576 0.007580 0.0
-0.821036 0.006993 0.0
-0.825058 0.006363 0.0
-0.828608 0.005692 0.0
-0.831657 0.004983 0.0
-0.834182 0.004242 0.0
-0.836170 0.003473 0.0
-0.837611 0.002682 0.0
-0.838505 0.001879 0.0
-0.838857 0.001075 0.0
-0.838682 0.000281 0.0
-0.838021 -0.000480 0.0
-0.836946 -0.001198 0.0
-0.835529 -0.001851 0.0
-0.833826 -0.002420 0.0
-0.831889 -0.002894 0.0
-0.829766 -0.003267 0.0
-0.827503 -0.003542 0.0
-0.825141 -0.003727 0.0
-0.822717 -0.003834 0.0
-0.820273 -0.003871 0.0
-0.817854 -0.003840 0.0
-0.815511 -0.003734 0.0
-0.813302 -0.003548 0.0
-0.811275 -0.003289 0.0
-0.809461 -0.002984 0.0
-0.807850 -0.002680 0.0
-0.806365 -0.002408 0.0
-0.804761 -0.002084 0.0
1.000669 0.003061 0.0
1.002527 0.007683 0.0
1.004967 0.010907 0.0
1.007370 0.013186 0.0
1.009517 0.014861 0.0
1.011357 0.016145 0.0
1.012895 0.017169 0.0
1.014148 0.018011 0.0
1.015138 0.018723 0.0
1.015879 0.019337 0.0
1.016386 0.019880 0.0
1.016665 0.020370 0.0
1.016722 0.020825 0.0
1.016557 0.021261 0.0
1.016167 0.021690 0.0
1.015545 0.022126 0.0
1.014683 0.022579 0.0
1.013566 0.023060 0.0
1.012180 0.023579 0.0
1.010504 0.024147 0.0
1.008518 0.024773 0.0
1.006194 0.025472 0.0
1.003505 0.026262 0.0
1.000413 0.027163 0.0
0.996879 0.028207 0.0
0.992851 0.029433 0.0
0.988267 0.030894 0.0
0.983048 0.032662 0.0
0.977094 0.034833 0.0
0.970274 0.037539 0.0
0.962417 0.040957 0.0
0.953289 0.045334 0.0
0.942570 0.051007 0.0
0.929811 0.058438 0.0
0.914370 0.068255 0.0
0.895309 0.081293 0.0
0.871237 0.098616 0.0
0.840056 0.121487 0.0
0.798595 0.151138 0.0
0.742064 0.188072 0.0
0.663291 0.230017 0.0
0.550856 0.266064 0.0
0.385900 0.267832 0.0
0.143679 0.175647 0.0
0.500000 -0.175653 0.0
1.000000 0.000000 0.0
1.000000 0.000000 0.0
1.000000 0.000000 0.0
1.000000 0.000000 0.0
1.000000 0.000000 0.0
0.500000 0.115816 0.0
0.006733 -0.115515 0.0
0.003984 -0.055457 0.0
-0.040359 0.009925 0.0
-0.102165 0.067646 0.0
-0.160350 0.100164 0.0
-0.224550 0.123591 0.0
-0.287308 0.147917 0.0
-0.344764 0.164437 0.0
-0.399800 0.176404 0.0
-0.456635 0.191985 0.0
-0.519461 0.212600 0.0
-0.590186 0.234293 0.0
-0.668180 0.253326 0.0
-0.751934 0.267040 0.0
-0.839596 0.273172 0.0
-0.928645 0.269835 0.0
-1.015675 0.255735 0.0
-1.096488 0.230356 0.0
-1.166443 0.194187 0.0
-1.221060 0.148942 0.0
-1.256809 0.097594 0.0
-1.271768 0.044000 0.0
-1.265864 -0.007682 0.0
-1.241465 -0.052950 0.0
-1.202662 -0.088843 0.0
-1.153712 -0.115119 0.0
-1.098402 -0.132828 0.0
-1.039641 -0.143556 0.0
-0.979524 -0.148878 0.0
-0.919532 -0.150109 0.0
-0.860737 -0.148233 0.0
-0.803962 -0.143932 0.0
-0.749900 -0.137684 0.0
-0.699149 -0.129885 0.0
-0.652178 -0.120954 0.0
-0.609281 -0.111312 0.0
-0.570578 -0.101357 0.0
-0.536029 -0.091428 0.0
-0.505476 -0.081773 0.0
-0.478712 -0.072528 0.0
-0.455519 -0.063786 0.0
-0.435671 -0.055613 0.0
-0.418934 -0.048068 0.0
-0.405053 -0.041196 0.0
-0.393762 -0.035029 0.0
-0.384781 -0.029572 0.0
-0.377833 -0.024811 0.0
-0.372649 -0.020721 0.0
-0.368972 -0.017273 0.0
-0.366558 -0.014437 0.0
-0.365180 -0.012175 0.0
-0.364631 -0.010437 0.0
-0.364727 -0.009167 0.0
-0.365305 -0.008311 0.0
-0.366216 -0.007826 0.0
-0.367316 -0.007677 0.0
-0.368476 -0.007824 0.0
-0.369579 -0.008225 0.0
-0.370529 -0.008829 0.0
-0.371251 -0.009579 0.0
-0.371690 -0.010409 0.0
-0.371819 -0.011250 0.0
-0.371635 -0.012027 0.0
-0.371161 -0.012670 0.0
-0.370440 -0.013112 0.0
-0.369532 -0.013295 0.0
-0.368517 -0.013166 0.0
-0.367485 -0.012690 0.0
-0.366536 -0.011850 0.0
-0.365775 -0.010644 0.0
-0.365308 -0.009090 0.0
-0.365240 -0.007219 0.0
-0.365674 -0.005061 0.0
-0.366713 -0.002646 0.0
-0.368457 -0.000012 0.0
-0.371073 0.002858 0.0
-0.374726 0.005906 0.0
-0.379489 0.009068 0.0
-0.385386 0.012262 0.0
-0.392410 0.015423 0.0
-0.400529 0.018491 0.0
-0.409687 0.021410 0.0
-0.419807 0.024127 0.0
-0.430792 0.026598 0.0
-0.442535 0.028792 0.0
-0.454919 0.030685 0.0
-0.467821 0.032262 0.0
-0.481118 0.033513 0.0
-0.494681 0.034435 0.0
-0.508385 0.035037 0.0
-0.522111 0.035334 0.0
-0.535749 0.035350 0.0
-0.549199 0.035111 0.0
-0.562374 0.034647 0.0
-0.575200 0.033991 0.0
-0.587613 0.033174 0.0
-0.599563 0.032228 0.0
-0.611012 0.031186 0.0
-0.621935 0.030076 0.0
-0.632317 0.028928 0.0
-0.642152 0.027766 0.0
-0.651444 0.026609 0.0
-0.660204 0.025474 0.0
-0.668447 0.024374 0.0
-0.676195 0.023317 0.0
-0.683469 0.022312 0.0
-0.690297 0.021361 0.0
-0.696706 0.020469 0.0
-0.702724 0.019635 0.0
-0.708381 0.018857 0.0
-0.713704 0.018131 0.0
-0.718719 0.017448 0.0
-0.723447 0.016800 0.0
-0.727905 0.016172 0.0
-0.732103 0.015551 0.0
-0.736045 0.014921 0.0
-0.739728 0.014263 0.0
-0.743142 0.013564 0.0
-0.746276 0.012809 0.0
-0.749114 0.011990 0.0
-0.751646 0.011102 0.0
-0.753858 0.010144 0.0
-0.755742 0.009118 0.0
-0.757287 0.008031 0.0
-0.758480 0.006886 0.0
-0.759308 0.005693 0.0
-0.759760 0.004461 0.0
-0.759827 0.003202 0.0
-0.759508 0.001932 0.0
-0.758803 0.000669 0.0
-0.757743 -0.000547 0.0
-0.756370 -0.001687 0.0
-0.754704 -0.002732 0.0
-0.752774 -0.003664 0.0
-0.750618 -0.004465 0.0
-0.748280 -0.005124 0.0
-0.745807 -0.005634 0.0
-0.743242 -0.006002 0.0
-0.740631 -0.006241 0.0
-0.738012 -0.006363 0.0
-0.735422 -0.006377 0.0
-0.732894 -0.006281 0.0
-0.730463 -0.006066 0.0
-0.728163 -0.005725 0.0
-0.726026 -0.005275 0.0
-0.724072 -0.004766 0.0
-0.722285 -0.004295 0.0
-0.720581 -0.003982 0.0
-0.718761 -0.003933 0.0
1.000307 0.002085 0.0
1.001312 0.005796 0.0
1.002872 0.008792 0.0
1.004622 0.011149 0.0
1.006357 0.013015 0.0
1.007986 0.014521 0.0
1.009475 0.015766 0.0
1.010817 0.016818 0.0
1.012017 0.017726 0.0
1.013084 0.018526 0.0
1.014026 0.019243 0.0
1.014850 0.019903 0.0
1.015561 0.020525 0.0
1.016160 0.021127 0.0
1.016646 0.021727 0.0
1.017016 0.022340 0.0
1.017262 0.022981 0.0
1.017374 0.023662 0.0
1.017341 0.024396 0.0
1.017150 0.025197 0.0
1.016783 0.026076 0.0
1.016223 0.027052 0.0
1.015451 0.028144 0.0
1.014444 0.029379 0.0
1.013180 0.030791 0.0
1.011632 0.032426 0.0
1.009772 0.034346 0.0
1.007570 0.036633 0.0
1.004989 0.039398 0.0
1.001990 0.042793 0.0
0.998526 0.047025 0.0
0.994538 0.052383 0.0
0.989945 0.059270 0.0
0.984627 0.068253 0.0
0.978377 0.080132 0.0
0.970817 0.096037 0.0
0.961217 0.117545 0.0
0.948129 0.146826 0.0
0.928649 0.186741 0.0
0.896918 0.240730 0.0
0.841131 0.311917 0.0
0.737889 0.399841 0.0
0.544840 0.492058 0.0
0.209578 0.528904 0.0
0.500000 -0.528913 0.0
1.000000 0.000000 0.0
1.000000 0.000000 0.0
1.000000 0.000000 0.0
1.000000 0.000000 0.0
1.000000 0.000000 0.0
0.500000 0.100025 0.0
-0.022667 -0.099581 0.0
-0.080018 -0.011290 0.0
-0.141470 0.071552 0.0
-0.196866 0.123221 0.0
-0.254012 0.159921 0.0
-0.309725 0.183747 0.0
-0.359646 0.200441 0.0
-0.399363 0.209086 0.0
-0.428341 0.215769 0.0
-0.453639 0.234753 0.0
-0.486769 0.265789 0.0
-0.532386 0.297447 0.0
-0.588601 0.324381 0.0
-0.653583 0.344721 0.0
-0.726330 0.355899 0.0
-0.805037 0.354864 0.0
-0.886343 0.339042 0.0
-0.965310 0.306830 0.0
-1.035772 0.258130 0.0
-1.091136 0.194980 0.0
-1.125797 0.121967 0.0
-1.136710 0.045499 0.0
-1.123851 -0.027943 0.0
-1.090947 -0.089993 0.0
-1.044135 -0.137414 0.0
-0.988963 -0.170670 0.0
-0.929491 -0.192060 0.0
-0.868326 -0.204250 0.0
-0.807055 -0.209570 0.0
-0.746670 -0.209794 0.0
-0.687852 -0.206162 0.0
-0.631178 -0.199452 0.0
-0.577259 -0.190146 0.0
-0.526772 -0.178662 0.0
-0.480312 -0.165608 0.0
-0.438247 -0.151619 0.0
-0.400704 -0.137295 0.0
-0.367587 -0.123156 0.0
-0.338630 -0.109554 0.0
-0.313549 -0.096593 0.0
-0.292104 -0.084360 0.0
-0.274066 -0.072925 0.0
-0.259202 -0.062357 0.0
-0.247262 -0.052728 0.0
-0.237963 -0.044088 0.0
-0.231011 -0.036447 0.0
-0.226117 -0.029779 0.0
-0.223014 -0.024040 0.0
-0.221460 -0.019184 0.0
-0.221232 -0.015167 0.0
-0.222123 -0.011931 0.0
-0.223938 -0.009415 0.0
-0.226495 -0.007536 0.0
-0.229632 -0.006227 0.0
-0.233193 -0.005438 0.0
-0.237028 -0.005128 0.0
-0.240996 -0.005245 0.0
-0.244968 -0.005729 0.0
-0.248833 -0.006510 0.0
-0.252498 -0.007512 0.0
-0.255891 -0.008645 0.0
-0.258963 -0.009813 0.0
-0.261693 -0.010917 0.0
-0.264084 -0.011863 0.0
-0.266158 -0.012566 0.0
-0.267962 -0.012945 0.0
-0.269561 -0.012933 0.0
-0.271035 -0.012481 0.0
-0.272479 -0.011564 0.0
-0.273989 -0.010180 0.0
-0.275658 -0.008351 0.0
-0.277565 -0.006119 0.0
-0.279777 -0.003515 0.0
-0.282370 -0.000561 0.0
-0.285561 0.002838 0.0
-0.289544 0.006607 0.0
-0.294369 0.010636 0.0
-0.300091 0.014823 0.0
-0.306733 0.019046 0.0
-0.314286 0.023216 0.0
-0.322722 0.027253 0.0
-0.331997 0.031080 0.0
-0.342043 0.034622 0.0
-0.352772 0.037818 0.0
-0.364082 0.040626 0.0
-0.375869 0.043022 0.0
-0.388027 0.044987 0.0
-0.400447 0.046505 0.0
-0.413012 0.047571 0.0
-0.425605 0.048198 0.0
-0.438117 0.048411 0.0
-0.450449 0.048243 0.0
-0.462514 0.047732 0.0
-0.474234 0.046921 0.0
-0.485546 0.045854 0.0
-0.496395 0.044573 0.0
-0.506740 0.043124 0.0
-0.516550 0.041550 0.0
-0.525806 0.039892 0.0
-0.534500 0.038188 0.0
-0.542633 0.036473 0.0
-0.550215 0.034775 0.0
-0.557263 0.033115 0.0
-0.563797 0.031510 0.0
-0.569842 0.029973 0.0
-0.575425 0.028513 0.0
-0.580575 0.027137 0.0
-0.585323 0.025850 0.0
-0.589702 0.024652 0.0
-0.593744 0.023539 0.0
-0.597478 0.022506 0.0
-0.600932 0.021542 0.0
-0.604128 0.020631 0.0
-0.607084 0.019755 0.0
-0.609812 0.018895 0.0
-0.612321 0.018028 0.0
-0.614613 0.017131 0.0
-0.616689 0.016186 0.0
-0.618544 0.015176 0.0
-0.620171 0.014089 0.0
-0.621560 0.012923 0.0
-0.622699 0.011674 0.0
-0.623571 0.010345 0.0
-0.624159 0.008937 0.0
-0.624441 0.007456 0.0
-0.624398 0.005909 0.0
-0.624013 0.004311 0.0
-0.623273 0.002680 0.0
-0.622173 0.001035 0.0
-0.620738 -0.000573 0.0
-0.618997 -0.002106 0.0
-0.616954 -0.003545 0.0
-0.614630 -0.004864 0.0
-0.612057 -0.006034 0.0
-0.609277 -0.007030 0.0
-0.606338 -0.007836 0.0
-0.603291 -0.008443 0.0
-0.600191 -0.008857 0.0
-0.597098 -0.009091 0.0
-0.594066 -0.009164 0.0
-0.591141 -0.009092 0.0
-0.588350 -0.008884 0.0
-0.585705 -0.008539 0.0
-0.583205 -0.008053 0.0
-0.580849 -0.007440 0.0
-0.578647 -0.006756 0.0
-0.576610 -0.006129 0.0
-0.574698 -0.005762 0.0
-0.572777 -0.005894 0.0
1.000171 0.001607 0.0
1.000784 0.004656 0.0
1.001824 0.007332 0.0
1.003088 0.009596 0.0
1.004428 0.011493 0.0
1.005752 0.013090 0.0
1.007013 0.014447 0.0
1.008190 0.015618 0.0
1.009276 0.016641 0.0
1.010270 0.017549 0.0
1.011177 0.018370 0.0
1.012002 0.019128 0.0
1.012747 0.019844 0.0
1.013415 0.020540 0.0
1.014006 0.021236 0.0
1.014520 0.021949 0.0
1.014951 0.022696 0.0
1.015294 0.023492 0.0
1.015543 0.024351 0.0
1.015689 0.025288 0.0
1.015724 0.026317 0.0
1.015637 0.027457 0.0
1.015421 0.028728 0.0
1.015066 0.030156 0.0
1.014567 0.031777 0.0
1.013920 0.033635 0.0
1.013126 0.035790 0.0
1.012193 0.038323 0.0
1.011143 0.041339 0.0
1.010012 0.044982 0.0
1.008863 0.049449 0.0
1.007793 0.055016 0.0
1.006950 0.062072 0.0
1.006544 0.071175 0.0
1.006854 0.083149 0.0
1.008214 0.099220 0.0
1.010923 0.121254 0.0
1.014982 0.152145 0.0
1.019411 0.196472 0.0
1.020523 0.261618 0.0
1.007690 0.359649 0.0
0.952950 0.510092 0.0
0.786047 0.741759 0.0
0.331016 1.069497 0.0
0.500000 -1.069512 0.0
1.000000 0.000000 0.0
1.000000 0.000000 0.0
1.000000 0.000000 0.0
1.000000 0.000000 0.0
1.000000 0.000000 0.0
0.500000 0.035104 0.0
-0.042403 -0.034511 0.0
-0.119380 0.057968 0.0
-0.185414 0.129780 0.0
-0.246093 0.181067 0.0
-0.301621 0.214749 0.0
-0.350257 0.233268 0.0
-0.388572 0.239156 0.0
-0.409931 0.231448 0.0
-0.405032 0.217486 0.0
-0.386057 0.239360 0.0
-0.383880 0.292135 0.0
-0.406163 0.339000 0.0
-0.443120 0.375998 0.0
-0.491912 0.406878 0.0
-0.554036 0.428613 0.0
-0.628833 0.435654 0.0
-0.712362 0.423087 0.0
-0.797868 0.387258 0.0
-0.876340 0.326636 0.0
-0.937633 0.243130 0.0
-0.972888 0.143733 0.0
-0.977844 0.039601 0.0
-0.954628 -0.058119 0.0
-0.910940 -0.136409 0.0
-0.855856 -0.192894 0.0
-0.796003 -0.230215 0.0
-0.735181 -0.252809 0.0
-0.675086 -0.264761 0.0
-0.616269 -0.269145 0.0
-0.558833 -0.268040 0.0
-0.502794 -0.262773 0.0
-0.448281 -0.254027 0.0
-0.395710 -0.242060 0.0
-0.345903 -0.227043 0.0
-0.299829 -0.209760 0.0
-0.258187 -0.191173 0.0
-0.221299 -0.172172 0.0
-0.189151 -0.153544 0.0
-0.161420 -0.135854 0.0
-0.137732 -0.119062 0.0
-0.117822 -0.103246 0.0
-0.101433 -0.088466 0.0
-0.088305 -0.074807 0.0
-0.078142 -0.062381 0.0
-0.070595 -0.051280 0.0
-0.065304 -0.041499 0.0
-0.061940 -0.032984 0.0
-0.060226 -0.025651 0.0
-0.059935 -0.019417 0.0
-0.060887 -0.014210 0.0
-0.062930 -0.009954 0.0
-0.065908 -0.006600 0.0
-0.069655 -0.004047 0.0
-0.074005 -0.002229 0.0
-0.078799 -0.001083 0.0
-0.083896 -0.000551 0.0
-0.089175 -0.000576 0.0
-0.094514 -0.001087 0.0
-0.099800 -0.002000 0.0
-0.104942 -0.003214 0.0
-0.109876 -0.004618 0.0
-0.114552 -0.006092 0.0
-0.118943 -0.007517 0.0
-0.123036 -0.008779 0.0
-0.126841 -0.009771 0.0
-0.130390 -0.010387 0.0
-0.133737 -0.010545 0.0
-0.136952 -0.010180 0.0
-0.140116 -0.009256 0.0
-0.143326 -0.007768 0.0
-0.146674 -0.005746 0.0
-0.150208 -0.003284 0.0
-0.153923 -0.000423 0.0
-0.158073 0.003090 0.0
-0.162878 0.007184 0.0
-0.168316 0.011683 0.0
-0.174442 0.016511 0.0
-0.181335 0.021563 0.0
-0.189013 0.026627 0.0
-0.197445 0.031619 0.0
-0.206611 0.036452 0.0
-0.216484 0.041030 0.0
-0.227005 0.045239 0.0
-0.238080 0.049004 0.0
-0.249610 0.052280 0.0
-0.261494 0.055039 0.0
-0.273649 0.057283 0.0
-0.285981 0.058962 0.0
-0.298370 0.060067 0.0
-0.310696 0.060621 0.0
-0.322855 0.060658 0.0
-0.334752 0.060224 0.0
-0.346307 0.059370 0.0
-0.357450 0.058148 0.0
-0.368123 0.056612 0.0
-0.378276 0.054817 0.0
-0.387871 0.052820 0.0
-0.396883 0.050675 0.0
-0.405297 0.048436 0.0
-0.413110 0.046151 0.0
-0.420330 0.043864 0.0
-0.426974 0.041611 0.0
-0.433064 0.039417 0.0
-0.438625 0.037303 0.0
-0.443684 0.035284 0.0
-0.448271 0.033371 0.0
-0.452417 0.031576 0.0
-0.456162 0.029904 0.0
-0.459542 0.028357 0.0
-0.462598 0.026932 0.0
-0.465368 0.025619 0.0
-0.467889 0.024404 0.0
-0.470191 0.023267 0.0
-0.472302 0.022186 0.0
-0.474243 0.021134 0.0
-0.476030 0.020084 0.0
-0.477670 0.019007 0.0
-0.479162 0.017877 0.0
-0.480493 0.016671 0.0
-0.481649 0.015376 0.0
-0.482606 0.013983 0.0
-0.483346 0.012491 0.0
-0.483845 0.010899 0.0
-0.484081 0.009206 0.0
-0.484029 0.007416 0.0
-0.483662 0.005538 0.0
-0.482955 0.003589 0.0
-0.481887 0.001593 0.0
-0.480463 -0.000402 0.0
-0.478697 -0.002337 0.0
-0.476582 -0.004198 0.0
-0.474125 -0.005952 0.0
-0.471350 -0.007557 0.0
-0.468288 -0.008976 0.0
-0.464981 -0.010175 0.0
-0.461480 -0.011132 0.0
-0.457841 -0.011833 0.0
-0.454130 -0.012277 0.0
-0.450418 -0.012475 0.0
-0.446784 -0.012446 0.0
-0.443306 -0.012214 0.0
-0.440050 -0.011809 0.0
-0.437053 -0.011256 0.0
-0.434313 -0.010577 0.0
-0.431790 -0.009795 0.0
-0.429439 -0.008953 0.0
-0.427246 -0.008163 0.0
-0.425215 -0.007671 0.0
-0.423257 -0.007865 0.0
1.000110 0.001326 0.0
1.000519 0.003916 0.0
1.001249 0.006302 0.0
1.002186 0.008425 0.0
1.003228 0.010283 0.0
1.004302 0.011901 0.0
1.005362 0.013315 0.0
1.006379 0.014556 0.0
1.007340 0.015656 0.0
1.008239 0.016641 0.0
1.009075 0.017536 0.0
1.009848 0.018365 0.0
1.010560 0.019150 0.0
1.011213 0.019914 0.0
1.011805 0.020679 0.0
1.012335 0.021463 0.0
1.012800 0.022285 0.0
1.013197 0.023162 0.0
1.013520 0.024108 0.0
1.013765 0.025139 0.0
1.013927 0.026270 0.0
1.014002 0.027516 0.0
1.013988 0.028899 0.0
1.013886 0.030442 0.0
1.013701 0.032176 0.0
1.013443 0.034140 0.0
1.013135 0.036387 0.0
1.012811 0.038982 0.0
1.012530 0.042011 0.0
1.012381 0.045589 0.0
1.012502 0.049869 0.0
1.013107 0.055061 0.0
1.014515 0.061462 0.0
1.017204 0.069501 0.0
1.021886 0.079830 0.0
1.029598 0.093467 0.0
1.041823 0.112073 0.0
1.060614 0.138476 0.0
1.088612 0.177715 0.0
1.128680 0.239196 0.0
1.182139 0.341446 0.0
1.241525 0.523648 0.0
1.273161 0.863469 0.0
0.637733 1.784866 0.0
-1.833332 -0.700266 0.0
-3.635474 0.000000 0.0
-3.593947 0.000000 0.0
-3.573589 0.000000 0.0
-3.545442 0.000000 0.0
-3.489716 0.000000 0.0
-1.726059 -0.003612 0.0
-0.062026 0.060046 0.0
-0.168419 0.136908 0.0
-0.247184 0.195641 0.0
-0.307701 0.236402 0.0
-0.353254 0.260495 0.0
-0.386163 0.269067 0.0
-0.407838 0.263346 0.0
-0.411715 0.232494 0.0
-0.357774 0.157600 0.0
-0.263738 0.186234 0.0
-0.219292 0.298638 0.0
-0.229126 0.364614 0.0
-0.249643 0.407858 0.0
-0.279718 0.453886 0.0
-0.330259 0.494270 0.0
-0.402426 0.516960 0.0
-0.490594 0.513479 0.0
-0.585302 0.477080 0.0
-0.673891 0.403875 0.0
-0.741583 0.294878 0.0
-0.775585 0.161242 0.0
-0.771117 0.022581 0.0
-0.735369 -0.100064 0.0
-0.681095 -0.192426 0.0
-0.618890 -0.254166 0.0
-0.556278 -0.291408 0.0
-0.496980 -0.311737 0.0
-0.441894 -0.321015 0.0
-0.390505 -0.323096 0.0
-0.341828 -0.320203 0.0
-0.294902 -0.313575 0.0
-0.248965 -0.303675 0.0
-0.203597 -0.290351 0.0
-0.159070 -0.273087 0.0
-0.116410 -0.252450 0.0
-0.076775 -0.229761 0.0
-0.040874 -0.206374 0.0
-0.008985 -0.183378 0.0
0.018695 -0.161431 0.0
0.042188 -0.140666 0.0
0.061660 -0.121025 0.0
0.077144 -0.102560 0.0
0.088770 -0.085466 0.0
0.096886 -0.070000 0.0
0.102014 -0.056336 0.0
0.104740 -0.044461 0.0
0.105605 -0.034251 0.0
0.105041 -0.025534 0.0
0.103350 -0.018134 0.0
0.100706 -0.011897 0.0
0.097216 -0.006735 0.0
0.093004 -0.002628 0.0
0.088222 0.000510 0.0
0.082988 0.002798 0.0
0.077377 0.004295 0.0
0.071493 0.005052 0.0
0.065469 0.005123 0.0
0.059438 0.004584 0.0
0.053521 0.003532 0.0
0.047826 0.002091 0.0
0.042440 0.000397 0.0
0.037409 -0.001399 0.0
0.032738 -0.003148 0.0
0.028396 -0.004713 0.0
0.024329 -0.005966 0.0
0.020471 -0.006785 0.0
0.016743 -0.007072 0.0
0.013055 -0.006751 0.0
0.009311 -0.005776 0.0
0.005405 -0.004132 0.0
0.001289 -0.001918 0.0
-0.003051 0.000762 0.0
-0.007975 0.004170 0.0
-0.013692 0.008363 0.0
-0.020089 0.013112 0.0
-0.027214 0.018319 0.0
-0.035098 0.023884 0.0
-0.043639 0.029623 0.0
-0.052773 0.035380 0.0
-0.062545 0.041070 0.0
-0.072959 0.046581 0.0
-0.084017 0.051832 0.0
-0.095662 0.056603 0.0
-0.107776 0.060830 0.0
-0.120250 0.064457 0.0
-0.132963 0.067460 0.0
-0.145880 0.069934 0.0
-0.158939 0.071701 0.0
-0.171975 0.072754 0.0
-0.184857 0.073143 0.0
-0.197474 0.072913 0.0
-0.209732 0.072124 0.0
-0.221553 0.070845 0.0
-0.232873 0.069135 0.0
-0.243635 0.067059 0.0
-0.253792 0.064679 0.0
-0.263306 0.062068 0.0
-0.272153 0.059287 0.0
-0.280320 0.056404 0.0
-0.287807 0.053482 0.0
-0.294629 0.050575 0.0
-0.300811 0.047725 0.0
-0.306379 0.044962 0.0
-0.311363 0.042304 0.0
-0.315793 0.039772 0.0
-0.319705 0.037381 0.0
-0.323143 0.035150 0.0
-0.326158 0.033089 0.0
-0.328804 0.031199 0.0
-0.331134 0.029476 0.0
-0.333196 0.027907 0.0
-0.335031 0.026472 0.0
-0.336677 0.025146 0.0
-0.338162 0.023902 0.0
-0.339508 0.022706 0.0
-0.340733 0.021524 0.0
-0.341845 0.020319 0.0
-0.342841 0.019053 0.0
-0.343708 0.017695 0.0
-0.344423 0.016223 0.0
-0.344960 0.014630 0.0
-0.345293 0.012917 0.0
-0.345401 0.011081 0.0
-0.345259 0.009119 0.0
-0.344836 0.007029 0.0
-0.344097 0.004819 0.0
-0.343008 0.002512 0.0
-0.341552 0.000147 0.0
-0.339737 -0.002194 0.0
-0.337554 -0.004494 0.0
-0.334993 -0.006717 0.0
-0.332070 -0.008813 0.0
-0.328814 -0.010729 0.0
-0.325263 -0.012417 0.0
-0.321468 -0.013835 0.0
-0.317486 -0.014954 0.0
-0.313380 -0.015755 0.0
-0.309213 -0.016234 0.0