# vtk DataFile Version 3.0
Scalar Field
ASCII
DATASET RECTILINEAR_GRID
DIMENSIONS 200 50 1
X_COORDINATES 200 double
0.050000 0.150000 0.250000 0.350000 0.450000 0.550000 0.650000 0.750000 0.850000 0.950000 1.050000 1.150000 1.250000 1.350000 1.450000 1.550000 1.650000 1.750000 1.850000 1.950000 2.050000 2.150000 2.250000 2.350000 2.450000 2.550000 2.650000 2.750000 2.850000 2.950000 3.050000 3.150000 3.250000 3.350000 3.450000 3.550000 3.650000 3.750000 3.850000 3.950000 4.050000 4.150000 4.250000 4.350000 4.450000 4.550000 4.650000 4.750000 4.850000 4.950000 5.050000 5.150000 5.250000 5.350000 5.450000 5.550000 5.650000 5.750000 5.850000 5.950000 6.050000 6.150000 6.250000 6.350000 6.450000 6.550000 6.650000 6.750000 6.850000 6.950000 7.050000 7.150000 7.250000 7.350000 7.450000 7.550000 7.650000 7.750000 7.850000 7.950000 8.050000 8.150000 8.250000 8.350000 8.450000 8.550000 8.650000 8.750000 8.850000 8.950000 9.050000 9.150000 9.250000 9.350000 9.450000 9.550000 9.650000 9.750000 9.850000 9.950000 10.050000 10.150000 10.250000 10.350000 10.450000 10.550000 10.650000 10.750000 10.850000 10.950000 11.050000 11.150000 11.250000 11.350000 11.450000 11.550000 11.650000 11.750000 11.850000 11.950000 12.050000 12.150000 12.250000 12.350000 12.450000 12.550000 12.650000 12.750000 12.850000 12.950000 13.050000 13.150000 13.250000 13.350000 13.450000 13.550000 13.650000 13.750000 13.850000 13.950000 14.050000 14.150000 14.250000 14.350000 14.450000 14.550000 14.650000 14.750000 14.850000 14.950000 15.050000 15.150000 15.250000 15.350000 15.450000 15.550000 15.650000 15.750000 15.850000 15.950000 16.050000 16.150000 16.250000 16.350000 16.450000 16.550000 16.650000 16.750000 16.850000 16.950000 17.050000 17.150000 17.250000 17.350000 17.450000 17.550000 17.650000 17.750000 17.850000 17.950000 18.050000 18.150000 18.250000 18.350000 18.450000 18.550000 18.650000 18.750000 18.850000 18.950000 19.050000 19.150000 19.250000 19.350000 19.450000 19.550000 19.650000 19.750000 19.850000 19.950000 
Y_COORDINATES 50 double
0.050000 0.150000 0.250000 0.350000 0.450000 0.550000 0.650000 0.750000 0.850000 0.950000 1.050000 1.150000 1.250000 1.350000 1.450000 1.550000 1.650000 1.750000 1.850000 1.950000 2.050000 2.150000 2.250000 2.350000 2.450000 2.550000 2.650000 2.750000 2.850000 2.950000 3.050000 3.150000 3.250000 3.350000 3.450000 3.550000 3.650000 3.750000 3.850000 3.950000 4.050000 4.150000 4.250000 4.350000 4.450000 4.550000 4.650000 4.750000 4.850000 4.950000 
Z_COORDINATES 1 double
0.0
POINT_DATA 10000
SCALARS Skalarfeld double 1
LOOKUP_TABLE default
10.102383
10.089966
10.082911
10.078249
10.074836
10.072172
10.070002
10.068188
10.066644
10.065317
10.064170
10.063181
10.062332
10.061613
10.061019
10.060547
10.060198
10.059974
10.059882
10.059930
10.060129
10.060491
10.061034
10.061776
10.062742
10.063960
10.065467
10.067306
10.069531
10.072211
10.075430
10.079292
10.083923
10.089474
10.096114
10.104011
10.113289
10.123945
10.135685
10.147695
10.158364
10.163799
10.165249
10.182712
10.182712
0.000000
0.000000
0.000000
0.000000
0.000000
-2.722387
-2.722386
-2.728004
-2.735757
-2.741312
-2.745657
-2.750098
-2.755888
-2.763740
-2.773432
-2.783357
-2.791529
-2.795962
-2.794890
-2.786981
-2.771459
-2.749237
-2.721942
-2.691549
-2.659854
-2.629138
-2.601303
-2.577902
-2.559926
-2.547620
-2.540690
-2.539182
-2.543316
-2.552346
-2.565459
-2.581791
-2.601182
-2.623742
-2.648305
-2.674597
-2.702446
-2.731784
-2.762616
-2.794987
-2.828946
-2.864505
-2.901605
-2.940099
-2.979736
-3.020158
-3.060911
-3.101453
-3.141174
-3.179418
-3.215503
-3.248741
-3.278464
-3.304037
-3.324884
-3.340503
-3.350481
-3.354502
-3.352352
-3.343906
-3.329111
-3.307976
-3.280528
-3.247142
-3.208281
-3.164188
-3.115174
-3.061591
-3.003836
-2.942354
-2.877638
-2.810224
-2.740679
-2.669587
-2.597529
-2.525070
-2.452737
-2.381018
-2.310346
-2.241099
-2.173607
-2.108164
-2.045027
-1.984429
-1.926581
-1.871695
-1.820002
-1.771743
-1.727133
-1.686349
-1.649544
-1.616871
-1.588446
-1.564310
-1.544442
-1.528786
-1.517245
-1.509641
-1.505721
-1.505196
-1.507799
-1.513182
-1.520662
-1.530200
-1.541694
-1.554737
-1.568934
-1.583930
-1.599416
-1.615124
-1.630830
-1.646355
-1.661566
-1.676377
-1.690746
-1.704674
-1.718201
-1.731396
-1.744348
-1.757162
-1.769940
-1.782785
-1.795786
-1.809020
-1.822552
-1.836439
-1.850726
-1.865457
-1.880669
-1.896393
-1.912652
-1.929463
-1.946833
-1.964757
-1.983223
-2.002210
-2.021688
-2.041621
-2.061968
-2.082680
-2.103706
-2.124986
-2.146452
-2.168021
-2.189593
-2.211034
-2.232168
-2.252764
-2.272545
-2.291243
-2.308900
10.088298
10.084633
10.080483
10.076928
10.074003
10.071583
10.069551
10.067821
10.066331
10.065041
10.063920
10.062949
10.062112
10.061402
10.060812
10.060340
10.059988
10.059759
10.059657
10.059692
10.059873
10.060213
10.060726
10.061432
10.062351
10.063510
10.064941
10.066683
10.068783
10.071301
10.074308
10.077893
10.082162
10.087241
10.093273
10.100403
10.108751
10.118349
10.129030
10.140225
10.150571
10.158223
10.169671
10.194508
10.194508
0.000000
0.000000
0.000000
0.000000
0.000000
-2.725826
-2.725826
-2.731439
-2.738435
-2.742341
-2.745619
-2.749126
-2.754269
-2.762257
-2.773385
-2.785175
-2.795363
-2.801693
-2.802155
-2.795219
-2.780172
-2.756602
-2.727447
-2.694806
-2.660824
-2.627759
-2.597698
-2.572355
-2.552788
-2.539126
-2.532203
-2.531704
-2.536691
-2.546776
-2.561186
-2.579091
-2.600053
-2.623694
-2.649331
-2.676565
-2.705191
-2.735138
-2.766432
-2.799149
-2.833368
-2.869134
-2.906417
-2.945090
-2.984913
-3.025537
-3.066506
-3.107274
-3.147227
-3.185699
-3.221999
-3.255432
-3.285320
-3.311021
-3.331952
-3.347605
-3.357566
-3.361526
-3.359282
-3.350732
-3.335836
-3.314645
-3.287167
-3.253821
-3.214861
-3.170673
-3.121584
-3.067941
-3.010126
-2.948572
-2.883766
-2.816242
-2.746574
-2.675351
-2.603162
-2.530575
-2.458126
-2.386303
-2.315537
-2.246201
-2.178613
-2.113057
-2.049792
-1.989044
-1.931007
-1.875874
-1.823871
-1.775263
-1.730285
-1.689115
-1.651893
-1.618803
-1.589991
-1.565507
-1.545310
-1.529364
-1.517607
-1.509861
-1.505860
-1.505282
-1.507951
-1.513337
-1.520898
-1.530663
-1.542319
-1.555520
-1.569880
-1.585038
-1.600678
-1.616523
-1.632343
-1.647953
-1.663216
-1.678042
-1.692389
-1.706259
-1.719695
-1.732769
-1.745581
-1.758240
-1.770860
-1.783546
-1.796394
-1.809483
-1.822880
-1.836640
-1.850811
-1.865436
-1.880553
-1.896195
-1.912387
-1.929146
-1.946479
-1.964382
-1.982841
-2.001834
-2.021332
-2.041299
-2.061692
-2.082468
-2.103574
-2.124956
-2.146551
-2.168285
-2.190067
-2.211773
-2.233228
-2.254175
-2.274221
-2.292733
-2.309009
10.080971
10.079617
10.077273
10.074797
10.072497
10.070448
10.068646
10.067063
10.065673
10.064450
10.063375
10.062434
10.061617
10.060916
10.060327
10.059850
10.059484
10.059232
10.059100
10.059094
10.059223
10.059495
10.059924
10.060523
10.061309
10.062300
10.063517
10.064985
10.066731
10.068784
10.071179
10.073949
10.077129
10.080750
10.084835
10.089393
10.094410
10.099852
10.105713
10.112198
10.120361
10.134379
10.165591
10.221676
10.221675
0.000000
0.000000
0.000000
0.000000
0.000000
-2.725865
-2.725865
-2.733346
-2.740400
-2.742276
-2.744209
-2.746914
-2.752563
-2.762262
-2.775722
-2.790893
-2.805560
-2.816604
-2.820792
-2.815633
-2.800218
-2.774923
-2.741097
-2.702436
-2.662004
-2.622605
-2.586830
-2.556859
-2.534109
-2.519238
-2.512656
-2.513238
-2.520330
-2.533170
-2.550810
-2.572264
-2.596718
-2.623484
-2.651907
-2.681535
-2.712130
-2.743634
-2.776116
-2.809717
-2.844590
-2.880849
-2.918525
-2.957536
-2.997676
-3.038612
-3.079894
-3.120975
-3.161232
-3.199989
-3.236544
-3.270188
-3.300231
-3.326019
-3.346956
-3.362528
-3.372320
-3.376035
-3.373503
-3.364683
-3.349425
-3.327289
-3.299245
-3.265511
-3.226335
-3.182008
-3.132818
-3.079079
-3.021145
-2.959432
-2.894419
-2.826645
-2.756693
-2.685173
-2.612688
-2.539817
-2.467106
-2.395052
-2.324086
-2.254565
-2.186784
-2.121003
-2.057482
-1.996445
-1.938055
-1.882463
-1.829882
-1.780634
-1.734988
-1.693124
-1.655137
-1.621299
-1.591811
-1.566738
-1.545957
-1.529514
-1.517427
-1.509509
-1.505426
-1.504654
-1.507285
-1.512834
-1.520831
-1.530993
-1.543017
-1.556572
-1.571283
-1.586787
-1.602750
-1.618886
-1.634949
-1.650745
-1.666127
-1.681001
-1.695322
-1.709094
-1.722363
-1.735214
-1.747758
-1.760121
-1.772432
-1.784811
-1.797362
-1.810171
-1.823305
-1.836821
-1.850766
-1.865186
-1.880121
-1.895608
-1.911676
-1.928344
-1.945618
-1.963494
-1.981955
-2.000977
-2.020529
-2.040572
-2.061065
-2.081965
-2.103223
-2.124790
-2.146611
-2.168626
-2.190758
-2.212908
-2.234921
-2.256552
-2.277378
-2.296663
-2.313508
10.076231
10.075594
10.074200
10.072493
10.070739
10.069064
10.067516
10.066108
10.064838
10.063700
10.062683
10.061780
10.060985
10.060294
10.059704
10.059215
10.058826
10.058542
10.058364
10.058299
10.058351
10.058528
10.058838
10.059288
10.059888
10.060644
10.061563
10.062650
10.063901
10.065307
10.066842
10.068460
10.070078
10.071568
10.072729
10.073265
10.072768
10.070729
10.066685
10.060744
10.055196
10.058516
10.090776
10.173562
10.173561
0.000000
0.000000
0.000000
0.000000
0.000000
-2.717126
-2.717125
-2.726528
-2.734179
-2.738390
-2.740936
-2.745154
-2.752992
-2.766077
-2.782841
-2.801449
-2.824216
-2.845409
-2.857333
-2.854721
-2.837914
-2.807836
-2.765588
-2.715472
-2.663222
-2.612609
-2.567001
-2.529453
-2.502011
-2.485664
-2.479334
-2.482188
-2.493125
-2.510870
-2.534030
-2.561221
-2.591211
-2.622974
-2.655708
-2.688886
-2.722264
-2.755837
-2.789775
-2.824345
-2.859832
-2.896473
-2.934401
-2.973610
-3.013945
-3.055100
-3.096634
-3.137994
-3.178544
-3.217592
-3.254417
-3.288293
-3.318510
-3.344399
-3.365349
-3.380830
-3.390424
-3.393846
-3.390961
-3.381715
-3.365118
-3.342429
-3.313956
-3.279945
-3.240632
-3.196251
-3.147041
-3.093269
-3.035251
-2.973382
-2.908136
-2.840062
-2.769761
-2.697873
-2.625025
-2.551808
-2.478783
-2.406466
-2.335286
-2.265583
-2.197609
-2.131570
-2.067736
-2.006333
-1.947493
-1.891302
-1.837944
-1.787833
-1.741279
-1.698457
-1.659354
-1.624479
-1.594077
-1.568287
-1.546575
-1.529364
-1.516691
-1.508381
-1.504100
-1.503473
-1.506262
-1.512078
-1.520499
-1.531159
-1.543709
-1.557789
-1.573017
-1.589020
-1.605451
-1.622005
-1.638421
-1.654489
-1.670053
-1.685007
-1.699302
-1.712942
-1.725979
-1.738510
-1.750664
-1.762591
-1.774444
-1.786366
-1.798476
-1.810869
-1.823616
-1.836771
-1.850383
-1.864500
-1.879169
-1.894434
-1.910331
-1.926882
-1.944094
-1.961959
-1.980457
-1.999557
-2.019222
-2.039413
-2.060084
-2.081191
-2.102689
-2.124531
-2.146670
-2.169056
-2.191630
-2.214317
-2.237002
-2.259492
-2.281449
-2.302273
-2.321382
10.072693
10.072332
10.071440
10.070238
10.068905
10.067554
10.066247
10.065016
10.063876
10.062829
10.061878
10.061019
10.060251
10.059571
10.058980
10.058478
10.058064
10.057741
10.057511
10.057377
10.057343
10.057413
10.057588
10.057873
10.058267
10.058766
10.059363
10.060040
10.060765
10.061486
10.062117
10.062524
10.062497
10.061715
10.059693
10.055700
10.048652
10.036961
10.018389
9.990036
9.949073
9.896125
9.846188
9.850355
9.850355
0.000000
0.000000
0.000000
0.000000
0.000000
-2.696672
-2.696671
-2.710203
-2.722547
-2.730767
-2.737675
-2.745548
-2.757010
-2.776649
-2.796597
-2.812244
-2.849762
-2.892253
-2.918970
-2.917461
-2.897076
-2.860074
-2.803715
-2.734142
-2.663908
-2.596952
-2.537107
-2.488983
-2.455457
-2.437279
-2.432282
-2.439131
-2.456074
-2.481123
-2.512199
-2.547311
-2.584703
-2.622960
-2.661067
-2.698425
-2.734833
-2.770415
-2.805529
-2.840654
-2.876288
-2.912851
-2.950626
-2.989712
-3.030015
-3.071256
-3.112995
-3.154658
-3.195580
-3.235036
-3.272271
-3.306531
-3.337081
-3.363228
-3.384338
-3.399858
-3.409352
-3.412540
-3.409387
-3.398767
-3.381509
-3.358370
-3.329622
-3.295498
-3.256200
-3.211914
-3.162822
-3.109134
-3.051119
-2.989150
-2.923704
-2.855341
-2.784690
-2.712438
-2.639245
-2.565702
-2.492393
-2.419868
-2.348550
-2.278763
-2.210700
-2.144468
-2.080359
-2.018604
-1.959303
-1.902440
-1.848161
-1.797052
-1.749465
-1.705554
-1.664812
-1.628546
-1.596809
-1.569730
-1.547192
-1.529302
-1.516074
-1.507353
-1.502864
-1.502269
-1.505236
-1.511371
-1.520255
-1.531477
-1.544642
-1.559348
-1.575195
-1.591791
-1.608773
-1.625815
-1.642642
-1.659025
-1.674795
-1.689836
-1.704092
-1.717565
-1.730311
-1.742440
-1.754100
-1.765471
-1.776737
-1.788072
-1.799616
-1.811477
-1.823724
-1.836412
-1.849587
-1.863303
-1.877618
-1.892590
-1.908266
-1.924675
-1.941824
-1.959700
-1.978274
-1.997506
-2.017352
-2.037764
-2.058693
-2.080094
-2.101920
-2.124127
-2.146672
-2.169512
-2.192604
-2.215893
-2.239306
-2.262724
-2.285940
-2.308603
-2.330675
10.069833
10.069600
10.068990
10.068116
10.067091
10.066001
10.064904
10.063837
10.062820
10.061867
10.060983
10.060170
10.059430
10.058764
10.058172
10.057655
10.057214
10.056850
10.056564
10.056359
10.056235
10.056192
10.056231
10.056348
10.056536
10.056784
10.057070
10.057359
10.057597
10.057698
10.057527
10.056878
10.055435
10.052710
10.047950
10.039979
10.026936
10.005802
9.971493
9.914973
9.818946
9.647192
9.317982
8.934160
3.586007
-3.488096
-3.330829
-3.317577
-3.304961
-3.234934
-2.873472
-2.679282
-2.692347
-2.708912
-2.723907
-2.737805
-2.750132
-2.762946
-2.799489
-2.824034
-2.804027
-2.874835
-2.964902
-3.020523
-3.007073
-2.978960
-2.937567
-2.860001
-2.757423
-2.663005
-2.575112
-2.496086
-2.434313
-2.393700
-2.374374
-2.372407
-2.385506
-2.411014
-2.445987
-2.487439
-2.532578
-2.579010
-2.624886
-2.668964
-2.710619
-2.749771
-2.786785
-2.822318
-2.857172
-2.892149
-2.927928
-2.964980
-3.003532
-3.043551
-3.084772
-3.126725
-3.168792
-3.210247
-3.250305
-3.288158
-3.323008
-3.354088
-3.380678
-3.402116
-3.417821
-3.427318
-3.430272
-3.426453
-3.414719
-3.396972
-3.373546
-3.344709
-3.310662
-3.271568
-3.227560
-3.178757
-3.125305
-3.067415
-3.005441
-2.939878
-2.871301
-2.800364
-2.727823
-2.654388
-2.580620
-2.507144
-2.434557
-2.363272
-2.293601
-2.225657
-2.159368
-2.095138
-2.033166
-1.973583
-1.916062
-1.860631
-1.808283
-1.759226
-1.713656
-1.671690
-1.633984
-1.600831
-1.572420
-1.548817
-1.530085
-1.516205
-1.507034
-1.502316
-1.501719
-1.504872
-1.511357
-1.520731
-1.532546
-1.546360
-1.561733
-1.578235
-1.595451
-1.612996
-1.630529
-1.647753
-1.664428
-1.680369
-1.695454
-1.709619
-1.722864
-1.735250
-1.746897
-1.757974
-1.768690
-1.779267
-1.789913
-1.800796
-1.812033
-1.823690
-1.835812
-1.848447
-1.861656
-1.875516
-1.890108
-1.905500
-1.921732
-1.938813
-1.956719
-1.975404
-1.994817
-2.014901
-2.035599
-2.056855
-2.078621
-2.100850
-2.123497
-2.146521
-2.169886
-2.193556
-2.217496
-2.241664
-2.266007
-2.290444
-2.314864
-2.339757
10.067409
10.067246
10.066804
10.066146
10.065343
10.064455
10.063532
10.062607
10.061704
10.060838
10.060018
10.059250
10.058539
10.057885
10.057292
10.056760
10.056290
10.055884
10.055541
10.055263
10.055048
10.054895
10.054799
10.054755
10.054750
10.054765
10.054773
10.054728
10.054560
10.054166
10.053385
10.051974
10.049558
10.045556
10.039057
10.028603
10.011792
9.984514
9.939311
9.861486
9.718430
9.424845
8.710471
6.235493
-1.762145
-3.488096
-3.330828
-3.317576
-3.304961
-3.234933
-3.067661
-2.858482
-2.806994
-2.795436
-2.788631
-2.781609
-2.772006
-2.763839
-2.790240
-2.825489
-2.747463
-2.899192
-3.087003
-3.203429
-3.116291
-3.076047
-3.052983
-2.943959
-2.779744
-2.658934
-2.547838
-2.442616
-2.363986
-2.316526
-2.297497
-2.300916
-2.322981
-2.359950
-2.407679
-2.462039
-2.519255
-2.576185
-2.630503
-2.680772
-2.726406
-2.767570
-2.805000
-2.839798
-2.873217
-2.906469
-2.940565
-2.976209
-3.013760
-3.053235
-3.094348
-3.136565
-3.179173
-3.221346
-3.262204
-3.300863
-3.336466
-3.368212
-3.395358
-3.417229
-3.433220
-3.442816
-3.445709
-3.440313
-3.428083
-3.410016
-3.386490
-3.357764
-3.323994
-3.285300
-3.241758
-3.193421
-3.140372
-3.082741
-3.020885
-2.955335
-2.886682
-2.815600
-2.742937
-2.669462
-2.595618
-2.522165
-2.449749
-2.378767
-2.309549
-2.242123
-2.175801
-2.111668
-2.049568
-1.989469
-1.931275
-1.875165
-1.821688
-1.771204
-1.724048
-1.680581
-1.641314
-1.606635
-1.576820
-1.552033
-1.532354
-1.517763
-1.508116
-1.503163
-1.502564
-1.505916
-1.512772
-1.522655
-1.535077
-1.549552
-1.565598
-1.582753
-1.600573
-1.618652
-1.636625
-1.654182
-1.671068
-1.687090
-1.702119
-1.716091
-1.729006
-1.740933
-1.752001
-1.762403
-1.772376
-1.782180
-1.792059
-1.802209
-1.812749
-1.823731
-1.835186
-1.847158
-1.859726
-1.873001
-1.887102
-1.902128
-1.918137
-1.935137
-1.953083
-1.971906
-1.991536
-2.011899
-2.032930
-2.054558
-2.076738
-2.099423
-2.122563
-2.146120
-2.170063
-2.194363
-2.218994
-2.243940
-2.269197
-2.294782
-2.320748
-2.347815
10.065291
10.065170
10.064835
10.064323
10.063678
10.062945
10.062161
10.061356
10.060551
10.059763
10.059002
10.058276
10.057590
10.056948
10.056353
10.055805
10.055306
10.054857
10.054457
10.054107
10.053803
10.053542
10.053320
10.053125
10.052945
10.052757
10.052530
10.052217
10.051746
10.051012
10.049858
10.048044
10.045206
10.040777
10.033866
10.023028
10.005852
9.978147
9.932218
9.852952
9.707678
9.414616
8.746804
6.956151
0.380236
-2.528747
-3.161919
-3.317678
-3.376301
-3.403312
-3.403502
-3.395000
-3.362951
-3.314708
-3.256173
-3.183870
-3.099956
-3.018903
-2.966607
-2.924824
-2.887843
-3.003789
-3.195565
-3.364172
-3.203443
-3.164752
-3.237509
-3.063630
-2.769301
-2.654238
-2.519854
-2.374131
-2.275921
-2.224094
-2.208051
-2.219260
-2.253196
-2.304766
-2.368269
-2.438178
-2.509530
-2.578312
-2.641694
-2.698081
-2.747032
-2.789094
-2.825552
-2.858116
-2.888637
-2.918865
-2.950221
-2.983674
-3.019713
-3.058373
-3.099301
-3.141843
-3.185135
-3.228198
-3.270018
-3.309603
-3.346029
-3.378461
-3.406155
-3.428446
-3.444725
-3.454386
-3.456754
-3.450271
-3.437596
-3.419336
-3.395889
-3.367465
-3.334161
-3.296044
-3.253140
-3.205432
-3.152957
-3.095712
-3.034128
-2.968773
-2.900223
-2.829235
-2.756735
-2.683625
-2.609827
-2.536640
-2.464720
-2.394345
-2.325655
-2.258678
-2.193198
-2.129517
-2.067576
-2.007306
-1.948694
-1.891928
-1.837412
-1.785573
-1.736871
-1.691803
-1.650907
-1.614648
-1.583386
-1.557362
-1.536692
-1.521367
-1.511246
-1.506070
-1.505485
-1.509058
-1.516307
-1.526716
-1.539754
-1.554890
-1.571604
-1.589394
-1.607788
-1.626352
-1.644700
-1.662506
-1.679502
-1.695491
-1.710342
-1.723994
-1.736455
-1.747803
-1.758184
-1.767813
-1.776958
-1.785910
-1.794951
-1.804300
-1.814060
-1.824249
-1.834886
-1.846021
-1.857767
-1.870284
-1.883748
-1.898305
-1.914029
-1.930936
-1.948929
-1.967889
-1.987736
-2.008384
-2.029753
-2.051781
-2.074404
-2.097573
-2.121247
-2.145384
-2.169946
-2.194912
-2.220277
-2.246027
-2.272208
-2.298899
-2.326188
-2.354929
10.063401
10.063307
10.063043
10.062631
10.062102
10.061486
10.060813
10.060105
10.059383
10.058662
10.057953
10.057263
10.056600
10.055967
10.055367
10.054802
10.054274
10.053782
10.053326
10.052905
10.052516
10.052155
10.051813
10.051483
10.051148
10.050789
10.050374
10.049862
10.049191
10.048273
10.046977
10.045115
10.042398
10.038390
10.032405
10.023338
10.009351
9.987254
9.951225
9.887596
9.764732
9.499016
8.816990
6.357188
-1.682656
-3.481844
-3.364469
-3.409621
-3.504460
-3.664312
-3.884347
-4.177291
-4.205940
-4.156753
-4.089073
-3.978312
-3.818222
-3.625253
-3.436422
-3.275868
-3.178016
-3.190888
-3.276927
-3.326124
-3.237775
-3.241831
-3.293667
-3.053311
-2.728359
-2.686664
-2.499055
-2.280688
-2.169241
-2.119578
-2.108426
-2.129028
-2.177645
-2.247113
-2.329566
-2.417823
-2.505473
-2.587461
-2.660419
-2.722649
-2.773970
-2.815485
-2.849239
-2.877754
-2.903627
-2.929315
-2.956732
-2.987127
-3.021102
-3.058666
-3.099338
-3.142273
-3.186389
-3.230497
-3.273396
-3.313958
-3.351172
-3.384172
-3.412232
-3.434749
-3.451204
-3.461057
-3.462241
-3.455118
-3.442147
-3.423848
-3.400642
-3.372660
-3.339994
-3.302614
-3.260488
-3.213561
-3.161895
-3.105113
-3.044020
-2.979133
-2.911130
-2.840640
-2.768455
-2.695498
-2.622355
-2.549883
-2.478731
-2.409234
-2.341517
-2.275550
-2.211189
-2.148394
-2.087034
-2.026998
-1.968274
-1.911037
-1.855648
-1.802588
-1.752418
-1.705754
-1.663216
-1.625365
-1.592649
-1.565377
-1.543711
-1.527657
-1.517076
-1.511698
-1.511144
-1.514951
-1.522600
-1.533533
-1.547178
-1.562962
-1.580323
-1.598722
-1.617652
-1.636651
-1.655309
-1.673281
-1.690292
-1.706139
-1.720697
-1.733912
-1.745806
-1.756473
-1.766081
-1.774868
-1.783135
-1.791173
-1.799289
-1.807734
-1.816559
-1.825708
-1.835262
-1.845312
-1.856024
-1.867618
-1.880317
-1.894276
-1.909588
-1.926235
-1.944168
-1.963277
-1.983389
-2.004369
-2.026114
-2.048555
-2.071634
-2.095305
-2.119524
-2.144250
-2.169451
-2.195099
-2.221195
-2.247782
-2.274902
-2.302635
-2.331149
-2.361462
10.061690
10.061613
10.061398
10.061058
10.060613
10.060086
10.059498
10.058869
10.058215
10.057550
10.056884
10.056225
10.055580
10.054953
10.054347
10.053765
10.053206
10.052672
10.052162
10.051674
10.051204
10.050747
10.050298
10.049845
10.049377
10.048875
10.048314
10.047664
10.046880
10.045903
10.044654
10.043023
10.040853
10.037918
10.033881
10.028212
10.020040
10.007855
9.988110
9.953887
9.889624
9.757516
9.464125
9.074867
3.696105
-3.481845
-3.364470
-3.409621
-3.504460
-3.664313
-4.385121
-4.885893
-4.684307
-4.719837
-4.793673
-4.782147
-4.650861
-4.398371
-4.089873
-3.787163
-3.544972
-3.395194
-3.320235
-3.260577
-3.185796
-3.144459
-3.076266
-2.866807
-2.694416
-2.594209
-2.384691
-2.173997
-2.065088
-2.015393
-2.001175
-2.031847
-2.097823
-2.188596
-2.293124
-2.402724
-2.509062
-2.605732
-2.688776
-2.756453
-2.808958
-2.848148
-2.877128
-2.899481
-2.918644
-2.938054
-2.960199
-2.986595
-3.017917
-3.054096
-3.094446
-3.137850
-3.182930
-3.228219
-3.272284
-3.313821
-3.351706
-3.385040
-3.413119
-3.435432
-3.451617
-3.461297
-3.461372
-3.454049
-3.440926
-3.422739
-3.399933
-3.372717
-3.340921
-3.304469
-3.263280
-3.217239
-3.166292
-3.110428
-3.050098
-2.985869
-2.918419
-2.848501
-2.776959
-2.704689
-2.632478
-2.561098
-2.491151
-2.422984
-2.356711
-2.292258
-2.229428
-2.167995
-2.107713
-2.048391
-1.989976
-1.932609
-1.876645
-1.822610
-1.771162
-1.723027
-1.678936
-1.639556
-1.605430
-1.576942
-1.554299
-1.537530
-1.526496
-1.520912
-1.520373
-1.524385
-1.532389
-1.543790
-1.557977
-1.574338
-1.592277
-1.611218
-1.630619
-1.649984
-1.668878
-1.686938
-1.703874
-1.719485
-1.733650
-1.746330
-1.757562
-1.767466
-1.776237
-1.784148
-1.791553
-1.798611
-1.805554
-1.812628
-1.820008
-1.827805
-1.836007
-1.844728
-1.854191
-1.864682
-1.876483
-1.889806
-1.904738
-1.921245
-1.939209
-1.958456
-1.978792
-2.000058
-2.022138
-2.044959
-2.068467
-2.092617
-2.117363
-2.142665
-2.168488
-2.194816
-2.221656
-2.249051
-2.277079
-2.305876
-2.335660
-2.367662
10.060123
10.060059
10.059878
10.059589
10.059206
10.058746
10.058224
10.057657
10.057058
10.056438
10.055808
10.055174
10.054543
10.053919
10.053305
10.052704
10.052115
10.051540
10.050977
10.050424
10.049878
10.049334
10.048785
10.048224
10.047639
10.047018
10.046343
10.045597
10.044757
10.043801
10.042707
10.041460
10.040054
10.038511
10.036891
10.035315
10.033977
10.033106
10.032888
10.033211
10.032736
10.028186
10.017347
10.019882
10.019881
0.000000
0.000000
0.000000
0.000000
0.000000
-4.820986
-4.820986
-4.837332
-4.965060
-5.141519
-5.305833
-5.321211
-5.088455
-4.721691
-4.301231
-3.905266
-3.583943
-3.346307
-3.170496
-3.036068
-2.931724
-2.818053
-2.666874
-2.527233
-2.392436
-2.225906
-2.078073
-1.971357
-1.905704
-1.895025
-1.938329
-2.021366
-2.132411
-2.260479
-2.394477
-2.522216
-2.635281
-2.729099
-2.801849
-2.854140
-2.888826
-2.910573
-2.924449
-2.934395
-2.945550
-2.960884
-2.982261
-3.010387
-3.044989
-3.085055
-3.129080
-3.175304
-3.221917
-3.267210
-3.309683
-3.348100
-3.381515
-3.409256
-3.430885
-3.446165
-3.454555
-3.453736
-3.446326
-3.433313
-3.415465
-3.393226
-3.366741
-3.335897
-3.300516
-3.260414
-3.215430
-3.165498
-3.110700
-3.051391
-2.988121
-2.921585
-2.852596
-2.782046
-2.710860
-2.639902
-2.569942
-2.501570
-2.435135
-2.370734
-2.308249
-2.247400
-2.187827
-2.129158
-2.071099
-2.013518
-1.956512
-1.900426
-1.845831
-1.793467
-1.744172
-1.698795
-1.658114
-1.622767
-1.593210
-1.569695
-1.552270
-1.540797
-1.534979
-1.534387
-1.538497
-1.546721
-1.558432
-1.572989
-1.589753
-1.608099
-1.627423
-1.647149
-1.666742
-1.685742
-1.703769
-1.720518
-1.735789
-1.749467
-1.761522
-1.772007
-1.781063
-1.788916
-1.795824
-1.801796
-1.807392
-1.812943
-1.818601
-1.824501
-1.830759
-1.837481
-1.844846
-1.853115
-1.862589
-1.873551
-1.886209
-1.900652
-1.916839
-1.934631
-1.953826
-1.974216
-1.995625
-2.017930
-2.041048
-2.064920
-2.089494
-2.114721
-2.140554
-2.166962
-2.193929
-2.221471
-2.249642
-2.278550
-2.308380
-2.339423
-2.373291
10.058677
10.058622
10.058465
10.058213
10.057877
10.057467
10.056996
10.056477
10.055921
10.055338
10.054735
10.054120
10.053499
10.052875
10.052251
10.051630
10.051011
10.050396
10.049782
10.049168
10.048551
10.047925
10.047286
10.046626
10.045937
10.045212
10.044441
10.043620
10.042746
10.041833
10.040911
10.040050
10.039386
10.039161
10.039793
10.041973
10.046803
10.055938
10.072239
10.099808
10.143439
10.208295
10.296117
10.397141
10.397140
0.000000
0.000000
0.000000
0.000000
0.000000
-4.769089
-4.769089
-4.830238
-4.975685
-5.207105
-5.577284
-5.760229
-5.572632
-5.213231
-4.720462
-4.201914
-3.736287
-3.357763
-3.068036
-2.853236
-2.691729
-2.555547
-2.426972
-2.307924
-2.190163
-2.067680
-1.958020
-1.875216
-1.829397
-1.829472
-1.876584
-1.966829
-2.092229
-2.240026
-2.395619
-2.544999
-2.676547
-2.782688
-2.860759
-2.911830
-2.940020
-2.951325
-2.952890
-2.951290
-2.952176
-2.959329
-2.974850
-2.999350
-3.032243
-3.072069
-3.116839
-3.164327
-3.212322
-3.258806
-3.302067
-3.340758
-3.373911
-3.400908
-3.421439
-3.435487
-3.441106
-3.439428
-3.431675
-3.418723
-3.401265
-3.379694
-3.354108
-3.324369
-3.290233
-3.251441
-3.207791
-3.159199
-3.105759
-3.047795
-2.985837
-2.920589
-2.852890
-2.783674
-2.713898
-2.644477
-2.576206
-2.509692
-2.445293
-2.383098
-2.322947
-2.264484
-2.207234
-2.150698
-2.094463
-2.038299
-1.982239
-1.926610
-1.872013
-1.819267
-1.769314
-1.723122
-1.681579
-1.645414
-1.615146
-1.591060
-1.573209
-1.561441
-1.555434
-1.554735
-1.558799
-1.567022
-1.578766
-1.593381
-1.610222
-1.628657
-1.648073
-1.667851
-1.687405
-1.706262
-1.724042
-1.740403
-1.755165
-1.768222
-1.779544
-1.789183
-1.797289
-1.803995
-1.809419
-1.814089
-1.818288
-1.822302
-1.826345
-1.830598
-1.835230
-1.840419
-1.846397
-1.853441
-1.861850
-1.871893
-1.883766
-1.897551
-1.913209
-1.930604
-1.949534
-1.969791
-1.991188
-2.013588
-2.036892
-2.061026
-2.085926
-2.111536
-2.137806
-2.164699
-2.192203
-2.220341
-2.249185
-2.278870
-2.309617
-2.341769
-2.377302
10.057335
10.057286
10.057147
10.056923
10.056621
10.056249
10.055817
10.055335
10.054812
10.054256
10.053675
10.053074
10.052458
10.051831
10.051195
10.050553
10.049905
10.049250
10.048588
10.047916
10.047231
10.046529
10.045805
10.045054
10.044270
10.043449
10.042588
10.041691
10.040773
10.039869
10.039049
10.038442
10.038278
10.038947
10.041104
10.045817
10.054775
10.070545
10.096762
10.138881
10.203474
10.294293
10.405208
10.508541
10.508540
0.000000
0.000000
0.000000
0.000000
0.000000
-4.675670
-4.675669
-4.759112
-4.915531
-5.150336
-5.486437
-5.808475
-5.757462
-5.536063
-5.001540
-4.400859
-3.834750
-3.351193
-2.966932
-2.677808
-2.465947
-2.308599
-2.186380
-2.086191
-1.997235
-1.914947
-1.844524
-1.794337
-1.773199
-1.788540
-1.844190
-1.940713
-2.074322
-2.235004
-2.407926
-2.576402
-2.725107
-2.843794
-2.927876
-2.977474
-2.997636
-2.996868
-2.984685
-2.969690
-2.958740
-2.956456
-2.965265
-2.985671
-3.016681
-3.056276
-3.101867
-3.150680
-3.200048
-3.247615
-3.291452
-3.330112
-3.362627
-3.388466
-3.407432
-3.419322
-3.422413
-3.419203
-3.410514
-3.397183
-3.379843
-3.358825
-3.334158
-3.305640
-3.272951
-3.235759
-3.193802
-3.146959
-3.095298
-3.039111
-2.978903
-2.915369
-2.849359
-2.781828
-2.713770
-2.646142
-2.579782
-2.515335
-2.453183
-2.393424
-2.335871
-2.280104
-2.225550
-2.171591
-2.117690
-2.063508
-2.009002
-1.954465
-1.900517
-1.848042
-1.798080
-1.751706
-1.709916
-1.673521
-1.643096
-1.618944
-1.601109
-1.589402
-1.583455
-1.582766
-1.586755
-1.594800
-1.606268
-1.620534
-1.636985
-1.655034
-1.674105
-1.693528
-1.712593
-1.730880
-1.748072
-1.763688
-1.777656
-1.789878
-1.800302
-1.808943
-1.815868
-1.821260
-1.825448
-1.828732
-1.831414
-1.833792
-1.836129
-1.838663
-1.841619
-1.845231
-1.849760
-1.855492
-1.862717
-1.871691
-1.882597
-1.895516
-1.910418
-1.927179
-1.945615
-1.965523
-1.986715
-2.009038
-2.032373
-2.056625
-2.081715
-2.107572
-2.134137
-2.161370
-2.189257
-2.217829
-2.247166
-2.277422
-2.308835
-2.341759
-2.378415
10.056085
10.056041
10.055915
10.055711
10.055434
10.055090
10.054687
10.054233
10.053735
10.053200
10.052634
10.052042
10.051427
10.050795
10.050146
10.049482
10.048804
10.048111
10.047402
10.046675
10.045927
10.045154
10.044351
10.043514
10.042639
10.041723
10.040767
10.039780
10.038782
10.037818
10.036971
10.036391
10.036335
10.037239
10.039824
10.045268
10.055438
10.073204
10.102721
10.149392
10.218557
10.312226
10.421649
10.518086
10.518085
0.000000
0.000000
0.000000
0.000000
0.000000
-4.582202
-4.582201
-4.680132
-4.838080
-5.049590
-5.320012
-5.616288
-5.755707
-5.606138
-5.104305
-4.476812
-3.865587
-3.321647
-2.872755
-2.526201
-2.270938
-2.089480
-1.963216
-1.874704
-1.810032
-1.761078
-1.726421
-1.709365
-1.715691
-1.751417
-1.821111
-1.927125
-2.068076
-2.236879
-2.420572
-2.602286
-2.764963
-2.895332
-2.985683
-3.035082
-3.049536
-3.039066
-3.014738
-2.986980
-2.964290
-2.952419
-2.954302
-2.970425
-2.999419
-3.038698
-3.085043
-3.135093
-3.185690
-3.234120
-3.278232
-3.316489
-3.347951
-3.372233
-3.389493
-3.397710
-3.398346
-3.392956
-3.382622
-3.368279
-3.350574
-3.329803
-3.305929
-3.278671
-3.247616
-3.212339
-3.172494
-3.127891
-3.078542
-3.024685
-2.966781
-2.905497
-2.841670
-2.776261
-2.710287
-2.644749
-2.580538
-2.518348
-2.458611
-2.401445
-2.346661
-2.293794
-2.242195
-2.191142
-2.139982
-2.088272
-2.035884
-1.983072
-1.930462
-1.878985
-1.829762
-1.783962
-1.742667
-1.706762
-1.676860
-1.653273
-1.636020
-1.624868
-1.619386
-1.619006
-1.623089