# vtk DataFile Version 3.0
Vector Field
ASCII
DATASET RECTILINEAR_GRID
DIMENSIONS 200 50 1
X_COORDINATES 200 double
0.050000 0.150000 0.250000 0.350000 0.450000 0.550000 0.650000 0.750000 0.850000 0.950000 1.050000 1.150000 1.250000 1.350000 1.450000 1.550000 1.650000 1.750000 1.850000 1.950000 2.050000 2.150000 2.250000 2.350000 2.450000 2.550000 2.650000 2.750000 2.850000 2.950000 3.050000 3.150000 3.250000 3.350000 3.450000 3.550000 3.650000 3.750000 3.850000 3.950000 4.050000 4.150000 4.250000 4.350000 4.450000 4.550000 4.650000 4.750000 4.850000 4.950000 5.050000 5.150000 5.250000 5.350000 5.450000 5.550000 5.650000 5.750000 5.850000 5.950000 6.050000 6.150000 6.250000 6.350000 6.450000 6.550000 6.650000 6.750000 6.850000 6.950000 7.050000 7.150000 7.250000 7.350000 7.450000 7.550000 7.650000 7.750000 7.850000 7.950000 8.050000 8.150000 8.250000 8.350000 8.450000 8.550000 8.650000 8.750000 8.850000 8.950000 9.050000 9.150000 9.250000 9.350000 9.450000 9.550000 9.650000 9.750000 9.850000 9.950000 10.050000 10.150000 10.250000 10.350000 10.450000 10.550000 10.650000 10.750000 10.850000 10.950000 11.050000 11.150000 11.250000 11.350000 11.450000 11.550000 11.650000 11.750000 11.850000 11.950000 12.050000 12.150000 12.250000 12.350000 12.450000 12.550000 12.650000 12.750000 12.850000 12.950000 13.050000 13.150000 13.250000 13.350000 13.450000 13.550000 13.650000 13.750000 13.850000 13.950000 14.050000 14.150000 14.250000 14.350000 14.450000 14.550000 14.650000 14.750000 14.850000 14.950000 15.050000 15.150000 15.250000 15.350000 15.450000 15.550000 15.650000 15.750000 15.850000 15.950000 16.050000 16.150000 16.250000 16.350000 16.450000 16.550000 16.650000 16.750000 16.850000 16.950000 17.050000 17.150000 17.250000 17.350000 17.450000 17.550000 17.650000 17.750000 17.850000 17.950000 18.050000 18.150000 18.250000 18.350000 18.450000 18.550000 18.650000 18.750000 18.850000 18.950000 19.050000 19.150000 19.250000 19.350000 19.450000 19.550000 19.650000 19.750000 19.850000 19.950000 
Y_COORDINATES 50 double
0.050000 0.150000 0.250000 0.350000 0.450000 0.550000 0.650000 0.750000 0.850000 0.950000 1.050000 1.150000 1.250000 1.350000 1.450000 1.550000 1.650000 1.750000 1.850000 1.950000 2.050000 2.150000 2.250000 2.350000 2.450000 2.550000 2.650000 2.750000 2.850000 2.950000 3.050000 3.150000 3.250000 3.350000 3.450000 3.550000 3.650000 3.750000 3.850000 3.950000 4.050000 4.150000 4.250000 4.350000 4.450000 4.550000 4.650000 4.750000 4.850000 4.950000 
Z_COORDINATES 1 double
0.0
POINT_DATA 10000
VECTORS Vektorfeld double
0.996428 0.003572 0.0
0.986681 0.006174 0.0
0.973237 0.007270 0.0
0.958172 0.007795 0.0
0.942307 0.008070 0.0
0.926015 0.008222 0.0
0.909486 0.008307 0.0
0.892829 0.008351 0.0
0.876109 0.008369 0.0
0.859372 0.008369 0.0
0.842647 0.008356 0.0
0.825957 0.008334 0.0
0.809317 0.008306 0.0
0.792739 0.008273 0.0
0.776230 0.008237 0.0
0.759792 0.008200 0.0
0.743426 0.008166 0.0
0.727125 0.008135 0.0
0.710879 0.008111 0.0
0.694670 0.008097 0.0
0.678476 0.008097 0.0
0.662267 0.008112 0.0
0.646006 0.008149 0.0
0.629647 0.008210 0.0
0.613132 0.008304 0.0
0.596390 0.008438 0.0
0.579331 0.008622 0.0
0.561838 0.008871 0.0
0.543761 0.009206 0.0
0.524901 0.009654 0.0
0.504995 0.010253 0.0
0.483687 0.011055 0.0
0.460501 0.012131 0.0
0.434793 0.013576 0.0
0.405705 0.015512 0.0
0.372100 0.018093 0.0
0.332511 0.021495 0.0
0.285134 0.025882 0.0
0.227922 0.031329 0.0
0.158948 0.037645 0.0
0.077067 0.044236 0.0
-0.013840 0.046671 0.0
-0.079712 0.019200 0.0
-0.049456 -0.049456 0.0
0.500000 0.049474 0.0
1.000000 0.000000 0.0
1.000000 0.000000 0.0
1.000000 0.000000 0.0
1.000000 0.000000 0.0
1.000000 0.000000 0.0
0.500000 0.027764 0.0
0.027681 -0.027681 0.0
0.067739 -0.012377 0.0
0.080091 0.000025 0.0
0.070732 0.009335 0.0
0.055621 0.005776 0.0
0.046465 0.003380 0.0
0.019800 0.023285 0.0
-0.039588 0.036103 0.0
-0.114121 0.038430 0.0
-0.190971 0.038420 0.0
-0.268920 0.039528 0.0
-0.348870 0.040422 0.0
-0.429740 0.040448 0.0
-0.509826 0.039638 0.0
-0.587742 0.038279 0.0
-0.662591 0.036570 0.0
-0.733697 0.034535 0.0
-0.800313 0.032081 0.0
-0.861505 0.029111 0.0
-0.916217 0.025601 0.0
-0.963446 0.021627 0.0
-1.002419 0.017345 0.0
-1.032708 0.012943 0.0
-1.054237 0.008586 0.0
-1.067201 0.004377 0.0
-1.071919 0.000341 0.0
-1.068662 -0.003598 0.0
-1.057849 -0.007216 0.0
-1.040207 -0.010426 0.0
-1.016583 -0.013198 0.0
-0.987873 -0.015512 0.0
-0.955001 -0.017360 0.0
-0.918892 -0.018749 0.0
-0.880439 -0.019704 0.0
-0.840471 -0.020264 0.0
-0.799727 -0.020481 0.0
-0.758834 -0.020411 0.0
-0.718310 -0.020113 0.0
-0.678561 -0.019637 0.0
-0.639896 -0.019028 0.0
-0.602550 -0.018319 0.0
-0.566701 -0.017530 0.0
-0.532497 -0.016674 0.0
-0.500073 -0.015751 0.0
-0.469565 -0.014758 0.0
-0.441115 -0.013692 0.0
-0.414873 -0.012550 0.0
-0.390984 -0.011338 0.0
-0.369577 -0.010068 0.0
-0.350749 -0.008760 0.0
-0.334552 -0.007438 0.0
-0.320987 -0.006127 0.0
-0.310012 -0.004848 0.0
-0.301545 -0.003618 0.0
-0.295470 -0.002457 0.0
-0.291631 -0.001383 0.0
-0.289833 -0.000416 0.0
-0.289830 0.000413 0.0
-0.291343 0.001099 0.0
-0.294108 0.001665 0.0
-0.297891 0.002118 0.0
-0.302467 0.002458 0.0
-0.307614 0.002690 0.0
-0.313121 0.002817 0.0
-0.318786 0.002848 0.0
-0.324422 0.002789 0.0
-0.329861 0.002650 0.0
-0.334954 0.002443 0.0
-0.339574 0.002177 0.0
-0.343617 0.001866 0.0
-0.347002 0.001520 0.0
-0.349673 0.001151 0.0
-0.351593 0.000770 0.0
-0.352747 0.000384 0.0
-0.353136 0.000005 0.0
-0.352784 -0.000356 0.0
-0.351742 -0.000685 0.0
-0.350086 -0.000971 0.0
-0.347909 -0.001206 0.0
-0.345320 -0.001383 0.0
-0.342437 -0.001500 0.0
-0.339383 -0.001553 0.0
-0.336286 -0.001543 0.0
-0.333273 -0.001470 0.0
-0.330465 -0.001338 0.0
-0.327976 -0.001152 0.0
-0.325906 -0.000918 0.0
-0.324342 -0.000646 0.0
-0.323351 -0.000345 0.0
-0.322980 -0.000026 0.0
-0.323251 0.000297 0.0
-0.324163 0.000615 0.0
-0.325696 0.000918 0.0
-0.327809 0.001195 0.0
-0.330444 0.001439 0.0
-0.333527 0.001644 0.0
-0.336973 0.001802 0.0
-0.340684 0.001909 0.0
-0.344555 0.001962 0.0
-0.348474 0.001957 0.0
-0.352324 0.001894 0.0
-0.355993 0.001775 0.0
-0.359370 0.001602 0.0
-0.362354 0.001382 0.0
-0.364856 0.001120 0.0
-0.366806 0.000830 0.0
-0.368155 0.000520 0.0
-0.368881 0.000206 0.0
-0.368988 -0.000099 0.0
-0.368502 -0.000387 0.0
-0.367468 -0.000647 0.0
-0.365950 -0.000871 0.0
-0.364023 -0.001055 0.0
-0.361775 -0.001194 0.0
-0.359296 -0.001285 0.0
-0.356680 -0.001331 0.0
-0.354017 -0.001332 0.0
-0.351391 -0.001294 0.0
-0.348876 -0.001221 0.0
-0.346532 -0.001122 0.0
-0.344407 -0.001003 0.0
-0.342532 -0.000873 0.0
-0.340920 -0.000739 0.0
-0.339568 -0.000612 0.0
-0.338459 -0.000497 0.0
-0.337559 -0.000403 0.0
-0.336823 -0.000334 0.0
-0.336193 -0.000295 0.0
-0.335608 -0.000289 0.0
-0.335003 -0.000316 0.0
-0.334313 -0.000374 0.0
-0.333480 -0.000459 0.0
-0.332457 -0.000564 0.0
-0.331211 -0.000683 0.0
-0.329723 -0.000805 0.0
-0.327994 -0.000924 0.0
-0.326040 -0.001030 0.0
-0.323891 -0.001119 0.0
-0.321588 -0.001185 0.0
-0.319179 -0.001224 0.0
-0.316723 -0.001232 0.0
-0.314289 -0.001202 0.0
-0.311959 -0.001128 0.0
-0.309819 -0.001011 0.0
-0.307939 -0.000869 0.0
-0.306342 -0.000728 0.0
-0.304991 -0.000623 0.0
-0.303747 -0.000621 0.0
-0.302258 -0.000868 0.0
1.001723 0.005421 0.0
1.005239 0.010556 0.0
1.008310 0.013261 0.0
1.010336 0.014843 0.0
1.011366 0.015856 0.0
1.011536 0.016558 0.0
1.010963 0.017072 0.0
1.009738 0.017468 0.0
1.007926 0.017782 0.0
1.005580 0.018038 0.0
1.002743 0.018249 0.0
0.999446 0.018427 0.0
0.995719 0.018579 0.0
0.991585 0.018712 0.0
0.987060 0.018831 0.0
0.982160 0.018944 0.0
0.976892 0.019056 0.0
0.971261 0.019177 0.0
0.965263 0.019314 0.0
0.958890 0.019477 0.0
0.952127 0.019674 0.0
0.944951 0.019919 0.0
0.937331 0.020222 0.0
0.929227 0.020600 0.0
0.920584 0.021072 0.0
0.911335 0.021661 0.0
0.901391 0.022402 0.0
0.890637 0.023338 0.0
0.878919 0.024533 0.0
0.866036 0.026069 0.0
0.851715 0.028065 0.0
0.835587 0.030679 0.0
0.817151 0.034130 0.0
0.795723 0.038713 0.0
0.770368 0.044817 0.0
0.739822 0.052940 0.0
0.702388 0.063671 0.0
0.655853 0.077619 0.0
0.597478 0.095179 0.0
0.524280 0.115967 0.0
0.434506 0.137569 0.0
0.330082 0.148670 0.0
0.206417 0.106738 0.0
0.069040 -0.029872 0.0
0.500000 0.029967 0.0
1.000000 0.000000 0.0
1.000000 0.000000 0.0
1.000000 0.000000 0.0
1.000000 0.000000 0.0
1.000000 0.000000 0.0
0.500000 0.076432 0.0
0.020849 -0.076211 0.0
0.050550 -0.033607 0.0
0.060707 -0.001253 0.0
0.039370 0.041309 0.0
-0.027011 0.055294 0.0
-0.124147 0.060155 0.0
-0.220474 0.089503 0.0
-0.302000 0.110797 0.0
-0.378770 0.115038 0.0
-0.454036 0.113929 0.0
-0.526552 0.114484 0.0
-0.596458 0.115322 0.0
-0.664754 0.114714 0.0
-0.731571 0.112275 0.0
-0.796504 0.108492 0.0
-0.859098 0.103799 0.0
-0.918840 0.098154 0.0
-0.974957 0.091195 0.0
-1.026345 0.082577 0.0
-1.071707 0.072210 0.0
-1.109806 0.060346 0.0
-1.139706 0.047499 0.0
-1.160911 0.034284 0.0
-1.173382 0.021247 0.0
-1.177434 0.008732 0.0
-1.173532 -0.003197 0.0
-1.162591 -0.014258 0.0
-1.145665 -0.024295 0.0
-1.123454 -0.033200 0.0
-1.096621 -0.040880 0.0
-1.065902 -0.047259 0.0
-1.032094 -0.052293 0.0
-0.996023 -0.055997 0.0
-0.958490 -0.058443 0.0
-0.920224 -0.059758 0.0
-0.881856 -0.060099 0.0
-0.843901 -0.059641 0.0
-0.806755 -0.058553 0.0
-0.770709 -0.056992 0.0
-0.735964 -0.055083 0.0
-0.702656 -0.052918 0.0
-0.670884 -0.050552 0.0
-0.640728 -0.048012 0.0
-0.612265 -0.045299 0.0
-0.585586 -0.042398 0.0
-0.560791 -0.039297 0.0
-0.537984 -0.035994 0.0
-0.517259 -0.032508 0.0
-0.498682 -0.028882 0.0
-0.482282 -0.025175 0.0
-0.468053 -0.021450 0.0
-0.455973 -0.017760 0.0
-0.446007 -0.014156 0.0
-0.438095 -0.010689 0.0
-0.432140 -0.007415 0.0
-0.428014 -0.004390 0.0
-0.425558 -0.001662 0.0
-0.424615 0.000715 0.0
-0.425042 0.002736 0.0
-0.426665 0.004416 0.0
-0.429267 0.005753 0.0
-0.432619 0.006751 0.0
-0.436493 0.007419 0.0
-0.440669 0.007771 0.0
-0.444938 0.007828 0.0
-0.449111 0.007617 0.0
-0.453016 0.007166 0.0
-0.456503 0.006507 0.0
-0.459446 0.005675 0.0
-0.461742 0.004707 0.0
-0.463315 0.003637 0.0
-0.464112 0.002501 0.0
-0.464104 0.001332 0.0
-0.463285 0.000156 0.0
-0.461681 -0.000983 0.0
-0.459345 -0.002055 0.0
-0.456347 -0.003027 0.0
-0.452760 -0.003872 0.0
-0.448673 -0.004568 0.0
-0.444184 -0.005099 0.0
-0.439400 -0.005452 0.0
-0.434432 -0.005623 0.0
-0.429394 -0.005608 0.0
-0.424400 -0.005413 0.0
-0.419556 -0.005047 0.0
-0.414963 -0.004525 0.0
-0.410710 -0.003867 0.0
-0.406874 -0.003097 0.0
-0.403514 -0.002244 0.0
-0.400675 -0.001336 0.0
-0.398389 -0.000408 0.0
-0.396669 0.000512 0.0
-0.395515 0.001400 0.0
-0.394904 0.002215 0.0
-0.394776 0.002926 0.0
-0.395050 0.003514 0.0
-0.395633 0.003961 0.0
-0.396424 0.004253 0.0
-0.397311 0.004376 0.0
-0.398177 0.004327 0.0
-0.398905 0.004102 0.0
-0.399378 0.003708 0.0
-0.399488 0.003155 0.0
-0.399133 0.002458 0.0
-0.398226 0.001639 0.0
-0.396703 0.000739 0.0
-0.394545 -0.000198 0.0
-0.391757 -0.001139 0.0
-0.388352 -0.002053 0.0
-0.384361 -0.002911 0.0
-0.379832 -0.003686 0.0
-0.374826 -0.004356 0.0
-0.369419 -0.004904 0.0
-0.363694 -0.005318 0.0
-0.357740 -0.005593 0.0
-0.351647 -0.005731 0.0
-0.345504 -0.005738 0.0
-0.339391 -0.005627 0.0
-0.333380 -0.005415 0.0
-0.327531 -0.005121 0.0
-0.321891 -0.004769 0.0
-0.316491 -0.004383 0.0
-0.311345 -0.003987 0.0
-0.306455 -0.003606 0.0
-0.301803 -0.003263 0.0
-0.297362 -0.002978 0.0
-0.293090 -0.002767 0.0
-0.288939 -0.002643 0.0
-0.284855 -0.002611 0.0
-0.280781 -0.002673 0.0
-0.276665 -0.002823 0.0
-0.272460 -0.003048 0.0
-0.268127 -0.003331 0.0
-0.263642 -0.003648 0.0
-0.258994 -0.003975 0.0
-0.254190 -0.004286 0.0
-0.249257 -0.004555 0.0
-0.244237 -0.004762 0.0
-0.239192 -0.004889 0.0
-0.234199 -0.004922 0.0
-0.229342 -0.004847 0.0
-0.224710 -0.004654 0.0
-0.220380 -0.004336 0.0
-0.216411 -0.003911 0.0
-0.212845 -0.003416 0.0
-0.209720 -0.002904 0.0
-0.207091 -0.002426 0.0
-0.204999 -0.002153 0.0
-0.202932 -0.002892 0.0
1.000677 0.003021 0.0
1.002567 0.007551 0.0
1.005075 0.010687 0.0
1.007576 0.012890 0.0
1.009848 0.014507 0.0
1.011833 0.015752 0.0
1.013528 0.016755 0.0
1.014945 0.017593 0.0
1.016100 0.018314 0.0
1.017004 0.018947 0.0
1.017667 0.019514 0.0
1.018096 0.020030 0.0
1.018294 0.020506 0.0
1.018263 0.020951 0.0
1.018004 0.021375 0.0
1.017514 0.021789 0.0
1.016791 0.022202 0.0
1.015826 0.022627 0.0
1.014611 0.023077 0.0
1.013132 0.023566 0.0
1.011371 0.024109 0.0
1.009306 0.024724 0.0
1.006911 0.025432 0.0
1.004150 0.026256 0.0
1.000982 0.027226 0.0
0.997357 0.028381 0.0
0.993210 0.029772 0.0
0.988462 0.031469 0.0
0.983013 0.033568 0.0
0.976732 0.036198 0.0
0.969446 0.039543 0.0
0.960922 0.043853 0.0
0.950835 0.049477 0.0
0.938734 0.056895 0.0
0.923963 0.066760 0.0
0.905566 0.079941 0.0
0.882114 0.097555 0.0
0.851454 0.120929 0.0
0.810315 0.151383 0.0
0.753757 0.189521 0.0
0.674375 0.233170 0.0
0.560435 0.271432 0.0
0.392571 0.275504 0.0
0.146071 0.185239 0.0
0.500000 -0.185036 0.0
1.000000 0.000000 0.0
1.000000 0.000000 0.0
1.000000 0.000000 0.0
1.000000 0.000000 0.0
1.000000 0.000000 0.0
0.500000 0.102363 0.0
0.005015 -0.102074 0.0
0.000665 -0.033096 0.0
-0.051621 0.040366 0.0
-0.131369 0.100775 0.0
-0.208705 0.139544 0.0
-0.294053 0.158388 0.0
-0.380827 0.174371 0.0
-0.458597 0.185226 0.0
-0.524963 0.183744 0.0
-0.581145 0.176671 0.0
-0.629267 0.172380 0.0
-0.672868 0.170932 0.0
-0.714324 0.168855 0.0
-0.754193 0.164819 0.0
-0.792735 0.159424 0.0
-0.830533 0.153259 0.0
-0.868015 0.145919 0.0
-0.904866 0.136400 0.0
-0.939953 0.123846 0.0
-0.971656 0.108006 0.0
-0.998349 0.089343 0.0
-1.018805 0.068858 0.0
-1.032387 0.047712 0.0
-1.038987 0.026890 0.0
-1.038870 0.007022 0.0
-1.032562 -0.011697 0.0
-1.020478 -0.028783 0.0
-1.002879 -0.044294 0.0
-0.980181 -0.058110 0.0
-0.952953 -0.070030 0.0
-0.921923 -0.079859 0.0
-0.887938 -0.087486 0.0
-0.851893 -0.092919 0.0
-0.814661 -0.096286 0.0
-0.777029 -0.097813 0.0
-0.739657 -0.097784 0.0
-0.703063 -0.096506 0.0
-0.667622 -0.094275 0.0
-0.633579 -0.091359 0.0
-0.601073 -0.087967 0.0
-0.570173 -0.084241 0.0
-0.540913 -0.080260 0.0
-0.513317 -0.076056 0.0
-0.487419 -0.071615 0.0
-0.463277 -0.066901 0.0
-0.440978 -0.061887 0.0
-0.420617 -0.056572 0.0
-0.402281 -0.050992 0.0
-0.386026 -0.045229 0.0
-0.371867 -0.039387 0.0
-0.359782 -0.033551 0.0
-0.349744 -0.027777 0.0
-0.341715 -0.022134 0.0
-0.335624 -0.016713 0.0
-0.331365 -0.011605 0.0
-0.328801 -0.006892 0.0
-0.327769 -0.002647 0.0
-0.328095 0.001084 0.0
-0.329617 0.004316 0.0
-0.332162 0.007003 0.0
-0.335522 0.009127 0.0
-0.339480 0.010687 0.0
-0.343822 0.011698 0.0
-0.348338 0.012184 0.0
-0.352835 0.012182 0.0
-0.357132 0.011735 0.0
-0.361071 0.010892 0.0
-0.364512 0.009709 0.0
-0.367339 0.008243 0.0
-0.369459 0.006555 0.0
-0.370802 0.004705 0.0
-0.371327 0.002754 0.0
-0.371015 0.000759 0.0
-0.369880 -0.001224 0.0
-0.367951 -0.003136 0.0
-0.365262 -0.004926 0.0
-0.361870 -0.006547 0.0
-0.357851 -0.007959 0.0
-0.353292 -0.009127 0.0
-0.348294 -0.010027 0.0
-0.342965 -0.010638 0.0
-0.337420 -0.010950 0.0
-0.331774 -0.010963 0.0
-0.326143 -0.010683 0.0
-0.320637 -0.010126 0.0
-0.315360 -0.009316 0.0
-0.310406 -0.008284 0.0
-0.305854 -0.007070 0.0
-0.301768 -0.005717 0.0
-0.298193 -0.004276 0.0
-0.295153 -0.002794 0.0
-0.292651 -0.001324 0.0
-0.290658 0.000089 0.0
-0.289139 0.001396 0.0
-0.288060 0.002538 0.0
-0.287358 0.003474 0.0
-0.286947 0.004174 0.0
-0.286729 0.004612 0.0
-0.286595 0.004769 0.0
-0.286430 0.004635 0.0
-0.286118 0.004210 0.0
-0.285547 0.003503 0.0
-0.284611 0.002533 0.0
-0.283211 0.001325 0.0
-0.281282 -0.000064 0.0
-0.278788 -0.001575 0.0
-0.275682 -0.003147 0.0
-0.271933 -0.004727 0.0
-0.267543 -0.006260 0.0
-0.262539 -0.007697 0.0
-0.256972 -0.008995 0.0
-0.250909 -0.010115 0.0
-0.244431 -0.011030 0.0
-0.237630 -0.011718 0.0
-0.230603 -0.012174 0.0
-0.223448 -0.012399 0.0
-0.216257 -0.012404 0.0
-0.209119 -0.012212 0.0
-0.202109 -0.011850 0.0
-0.195292 -0.011352 0.0
-0.188714 -0.010756 0.0
-0.182407 -0.010102 0.0
-0.176387 -0.009433 0.0
-0.170649 -0.008788 0.0
-0.165176 -0.008206 0.0
-0.159933 -0.007719 0.0
-0.154875 -0.007355 0.0
-0.149948 -0.007133 0.0
-0.145088 -0.007064 0.0
-0.140231 -0.007150 0.0
-0.135315 -0.007378 0.0
-0.130284 -0.007730 0.0
-0.125088 -0.008177 0.0
-0.119693 -0.008682 0.0
-0.114077 -0.009204 0.0
-0.108239 -0.009699 0.0
-0.102193 -0.010121 0.0
-0.095977 -0.010432 0.0
-0.089646 -0.010596 0.0
-0.083271 -0.010584 0.0
-0.076937 -0.010376 0.0
-0.070735 -0.009960 0.0
-0.064752 -0.009342 0.0
-0.059076 -0.008549 0.0
-0.053794 -0.007625 0.0
-0.048991 -0.006624 0.0
-0.044724 -0.005601 0.0
-0.041071 -0.004724 0.0
-0.038230 -0.005229 0.0
1.000314 0.002030 0.0
1.001351 0.005615 0.0
1.002978 0.008489 0.0
1.004824 0.010741 0.0
1.006682 0.012526 0.0
1.008453 0.013978 0.0
1.010096 0.015192 0.0
1.011599 0.016236 0.0
1.012963 0.017153 0.0
1.014190 0.017976 0.0
1.015288 0.018725 0.0
1.016261 0.019418 0.0
1.017112 0.020068 0.0
1.017845 0.020686 0.0
1.018461 0.021283 0.0
1.018960 0.021871 0.0
1.019340 0.022463 0.0
1.019597 0.023073 0.0
1.019726 0.023717 0.0
1.019719 0.024412 0.0
1.019564 0.025178 0.0
1.019248 0.026035 0.0
1.018756 0.027009 0.0
1.018067 0.028129 0.0
1.017158 0.029429 0.0
1.016006 0.030956 0.0
1.014580 0.032770 0.0
1.012849 0.034950 0.0
1.010777 0.037607 0.0
1.008326 0.040892 0.0
1.005448 0.045014 0.0
1.002086 0.050269 0.0
0.998163 0.057071 0.0
0.993558 0.066008 0.0
0.988066 0.077910 0.0
0.981306 0.093949 0.0
0.972534 0.115771 0.0
0.960272 0.145635 0.0
0.941551 0.186536 0.0
0.910381 0.242096 0.0
0.854693 0.315665 0.0
0.750572 0.406999 0.0
0.554729 0.503644 0.0
0.213508 0.544819 0.0
0.500000 -0.544486 0.0
1.000000 0.000000 0.0
1.000000 0.000000 0.0
1.000000 0.000000 0.0
1.000000 0.000000 0.0
1.000000 0.000000 0.0
0.500000 0.082414 0.0
-0.024971 -0.082118 0.0
-0.092180 0.018507 0.0
-0.168992 0.117861 0.0
-0.242851 0.176887 0.0
-0.321824 0.219740 0.0
-0.401063 0.242780 0.0
-0.476914 0.252602 0.0
-0.542827 0.250678 0.0
-0.592790 0.234622 0.0
-0.623483 0.212668 0.0
-0.640142 0.201164 0.0
-0.653309 0.198917 0.0
-0.667231 0.196248 0.0
-0.680961 0.191026 0.0
-0.694684 0.185483 0.0
-0.710650 0.180963 0.0
-0.730949 0.175996 0.0
-0.755724 0.167949 0.0
-0.783173 0.154833 0.0
-0.810445 0.135995 0.0
-0.834621 0.112222 0.0
-0.853522 0.085335 0.0
-0.866064 0.057359 0.0
-0.872067 0.029847 0.0
-0.871809 0.003690 0.0
-0.865747 -0.020734 0.0
-0.854108 -0.043469 0.0
-0.836891 -0.064423 0.0
-0.814297 -0.083274 0.0
-0.786806 -0.099585 0.0
-0.755168 -0.112970 0.0
-0.720320 -0.123208 0.0
-0.683265 -0.130297 0.0
-0.644978 -0.134428 0.0
-0.606330 -0.135952 0.0
-0.568044 -0.135303 0.0
-0.530688 -0.132937 0.0
-0.494674 -0.129298 0.0
-0.460260 -0.124793 0.0
-0.427563 -0.119735 0.0
-0.396610 -0.114325 0.0
-0.367391 -0.108656 0.0
-0.339889 -0.102759 0.0
-0.314113 -0.096588 0.0
-0.290129 -0.090054 0.0
-0.268057 -0.083105 0.0
-0.248032 -0.075740 0.0
-0.230177 -0.068016 0.0
-0.214572 -0.060065 0.0
-0.201233 -0.052049 0.0
-0.190144 -0.044063 0.0
-0.181291 -0.036156 0.0
-0.174624 -0.028451 0.0
-0.170037 -0.021074 0.0
-0.167395 -0.014146 0.0
-0.166530 -0.007780 0.0
-0.167248 -0.002073 0.0
-0.169375 0.002963 0.0
-0.172717 0.007302 0.0
-0.177034 0.010880 0.0
-0.182093 0.013670 0.0
-0.187665 0.015674 0.0
-0.193526 0.016913 0.0
-0.199467 0.017425 0.0
-0.205291 0.017261 0.0
-0.210819 0.016481 0.0
-0.215892 0.015157 0.0
-0.220373 0.013366 0.0
-0.224150 0.011189 0.0
-0.227132 0.008710 0.0
-0.229253 0.006015 0.0
-0.230474 0.003189 0.0
-0.230781 0.000319 0.0
-0.230184 -0.002515 0.0
-0.228707 -0.005252 0.0
-0.226391 -0.007815 0.0
-0.223300 -0.010140 0.0
-0.219513 -0.012171 0.0
-0.215129 -0.013859 0.0
-0.210254 -0.015168 0.0
-0.205007 -0.016072 0.0
-0.199512 -0.016557 0.0
-0.193895 -0.016621 0.0
-0.188280 -0.016273 0.0
-0.182787 -0.015535 0.0
-0.177530 -0.014441 0.0
-0.172609 -0.013034 0.0
-0.168112 -0.011368 0.0
-0.164110 -0.009507 0.0
-0.160654 -0.007518 0.0
-0.157770 -0.005475 0.0
-0.155464 -0.003452 0.0
-0.153718 -0.001523 0.0
-0.152482 0.000253 0.0
-0.151690 0.001810 0.0
-0.151277 0.003087 0.0
-0.151161 0.004034 0.0
-0.151236 0.004611 0.0
-0.151389 0.004790 0.0
-0.151496 0.004557 0.0
-0.151434 0.003914 0.0
-0.151082 0.002875 0.0
-0.150327 0.001469 0.0
-0.149076 -0.000261 0.0
-0.147249 -0.002235 0.0
-0.144762 -0.004386 0.0
-0.141562 -0.006641 0.0
-0.137630 -0.008913 0.0
-0.132973 -0.011121 0.0
-0.127624 -0.013190 0.0
-0.121640 -0.015053 0.0
-0.115105 -0.016656 0.0
-0.108113 -0.017958 0.0
-0.100771 -0.018932 0.0
-0.093190 -0.019568 0.0
-0.085481 -0.019870 0.0
-0.077750 -0.019855 0.0
-0.070096 -0.019554 0.0
-0.062605 -0.019009 0.0
-0.055346 -0.018269 0.0
-0.048372 -0.017389 0.0
-0.041719 -0.016428 0.0
-0.035402 -0.015446 0.0
-0.029415 -0.014500 0.0
-0.023737 -0.013646 0.0
-0.018328 -0.012931 0.0
-0.013133 -0.012395 0.0
-0.008089 -0.012066 0.0
-0.003122 -0.011959 0.0
0.001842 -0.012076 0.0
0.006877 -0.012403 0.0
0.012055 -0.012914 0.0
0.017433 -0.013567 0.0
0.023056 -0.014311 0.0
0.028952 -0.015087 0.0
0.035126 -0.015829 0.0
0.041562 -0.016473 0.0
0.048225 -0.016958 0.0
0.055055 -0.017230 0.0
0.061976 -0.017245 0.0
0.068899 -0.016971 0.0
0.075725 -0.016394 0.0
0.082350 -0.015518 0.0
0.088670 -0.014370 0.0
0.094580 -0.012995 0.0
0.099978 -0.011455 0.0
0.104767 -0.009826 0.0
0.108830 -0.008217 0.0
0.111849 -0.007595 0.0
1.000178 0.001537 0.0
1.000822 0.004426 0.0
1.001927 0.006946 0.0
1.003286 0.009077 0.0
1.004746 0.010872 0.0
1.006209 0.012398 0.0
1.007622 0.013716 0.0
1.008957 0.014873 0.0
1.010203 0.015907 0.0
1.011354 0.016843 0.0
1.012412 0.017702 0.0
1.013379 0.018501 0.0
1.014260 0.019254 0.0
1.015056 0.019971 0.0
1.015771 0.020667 0.0
1.016408 0.021352 0.0
1.016968 0.022043 0.0
1.017450 0.022754 0.0
1.017855 0.023503 0.0
1.018179 0.024310 0.0
1.018418 0.025196 0.0
1.018568 0.026183 0.0
1.018623 0.027300 0.0
1.018576 0.028575 0.0
1.018422 0.030045 0.0
1.018159 0.031756 0.0
1.017788 0.033767 0.0
1.017319 0.036154 0.0
1.016772 0.039022 0.0
1.016187 0.042514 0.0
1.015629 0.046828 0.0
1.015202 0.052243 0.0
1.015062 0.059161 0.0
1.015427 0.068158 0.0
1.016593 0.080086 0.0
1.018906 0.096220 0.0
1.022682 0.118495 0.0
1.027940 0.149915 0.0
1.033695 0.195223 0.0
1.036215 0.262060 0.0
1.024695 0.362909 0.0
0.970629 0.517943 0.0
0.802184 0.756989 0.0
0.338276 1.096603 0.0
0.500000 -1.096045 0.0
1.000000 0.000000 0.0
1.000000 0.000000 0.0
1.000000 0.000000 0.0
1.000000 0.000000 0.0
1.000000 0.000000 0.0
0.500000 0.009869 0.0
-0.047558 -0.009590 0.0
-0.137353 0.102982 0.0
-0.220528 0.193372 0.0
-0.302655 0.257363 0.0
-0.382965 0.298547 0.0
-0.458123 0.318372 0.0
-0.525943 0.320681 0.0
-0.582914 0.305484 0.0
-0.618893 0.265759 0.0
-0.618549 0.211880 0.0
-0.593143 0.193204 0.0
-0.572632 0.199533 0.0
-0.561977 0.198898 0.0
-0.551590 0.191718 0.0
-0.540340 0.187266 0.0
-0.534582 0.189387 0.0
-0.540086 0.193374 0.0
-0.557420 0.192678 0.0
-0.583081 0.183214 0.0
-0.611884 0.163689 0.0
-0.638781 0.135600 0.0
-0.660363 0.102439 0.0
-0.675338 0.067772 0.0
-0.683828 0.033927 0.0
-0.686346 0.001871 0.0
-0.683253 -0.028071 0.0
-0.674421 -0.056603 0.0
-0.659504 -0.083424 0.0
-0.638537 -0.107835 0.0
-0.612043 -0.129008 0.0
-0.580966 -0.146262 0.0
-0.546480 -0.159251 0.0
-0.509779 -0.168011 0.0
-0.471920 -0.172859 0.0
-0.433756 -0.174333 0.0
-0.395913 -0.173050 0.0
-0.358855 -0.169604 0.0
-0.322957 -0.164542 0.0
-0.288510 -0.158410 0.0
-0.255677 -0.151647 0.0
-0.224511 -0.144532 0.0
-0.195010 -0.137170 0.0
-0.167133 -0.129623 0.0
-0.140855 -0.121778 0.0
-0.116246 -0.113456 0.0
-0.093467 -0.104555 0.0
-0.072707 -0.095074 0.0
-0.054158 -0.085087 0.0
-0.037976 -0.074780 0.0
-0.024264 -0.064385 0.0
-0.013097 -0.053983 0.0
-0.004486 -0.043699 0.0
0.001646 -0.033706 0.0
0.005410 -0.024170 0.0
0.006968 -0.015250 0.0
0.006513 -0.007086 0.0
0.004257 0.000207 0.0
0.000418 0.006648 0.0
-0.004746 0.012123 0.0
-0.010954 0.016583 0.0
-0.017936 0.020007 0.0
-0.025429 0.022402 0.0
-0.033185 0.023804 0.0
-0.040973 0.024264 0.0
-0.048581 0.023853 0.0
-0.055814 0.022651 0.0
-0.062505 0.020752 0.0
-0.068510 0.018258 0.0
-0.073707 0.015272 0.0
-0.078003 0.011905 0.0
-0.081330 0.008268 0.0
-0.083645 0.004471 0.0
-0.084928 0.000628 0.0
-0.085191 -0.003158 0.0
-0.084466 -0.006811 0.0
-0.082804 -0.010234 0.0
-0.080276 -0.013341 0.0
-0.076973 -0.016059 0.0
-0.073002 -0.018326 0.0
-0.068483 -0.020094 0.0
-0.063547 -0.021328 0.0
-0.058329 -0.022013 0.0
-0.052968 -0.022143 0.0
-0.047602 -0.021732 0.0
-0.042362 -0.020808 0.0
-0.037374 -0.019414 0.0
-0.032749 -0.017606 0.0
-0.028584 -0.015457 0.0
-0.024956 -0.013048 0.0
-0.021921 -0.010470 0.0
-0.019510 -0.007819 0.0
-0.017729 -0.005195 0.0
-0.016560 -0.002695 0.0
-0.015957 -0.000415 0.0
-0.015849 0.001578 0.0
-0.016151 0.003209 0.0
-0.016763 0.004408 0.0
-0.017568 0.005117 0.0
-0.018434 0.005301 0.0
-0.019220 0.004940 0.0
-0.019786 0.004035 0.0
-0.019993 0.002609 0.0
-0.019715 0.000702 0.0
-0.018837 -0.001622 0.0
-0.017250 -0.004288 0.0
-0.014869 -0.007202 0.0
-0.011643 -0.010252 0.0
-0.007555 -0.013323 0.0
-0.002620 -0.016303 0.0
0.003113 -0.019090 0.0
0.009569 -0.021592 0.0
0.016651 -0.023736 0.0
0.024247 -0.025467 0.0
0.032232 -0.026751 0.0
0.040476 -0.027575 0.0
0.048851 -0.027947 0.0
0.057234 -0.027891 0.0
0.065514 -0.027451 0.0
0.073594 -0.026683 0.0
0.081393 -0.025653 0.0
0.088851 -0.024436 0.0
0.095928 -0.023111 0.0
0.102607 -0.021759 0.0
0.108893 -0.020459 0.0
0.114812 -0.019284 0.0
0.120409 -0.018299 0.0
0.125746 -0.017558 0.0
0.130899 -0.017100 0.0
0.135953 -0.016946 0.0
0.140998 -0.017098 0.0
0.146123 -0.017541 0.0
0.151411 -0.018240 0.0
0.156933 -0.019140 0.0
0.162743 -0.020172 0.0
0.168875 -0.021254 0.0
0.175339 -0.022300 0.0
0.182120 -0.023220 0.0
0.189176 -0.023930 0.0
0.196440 -0.024354 0.0
0.203826 -0.024429 0.0
0.211229 -0.024113 0.0
0.218533 -0.023381 0.0
0.225614 -0.022236 0.0
0.232345 -0.020703 0.0
0.238603 -0.018830 0.0
0.244267 -0.016683 0.0
0.249222 -0.014341 0.0
0.253343 -0.011887 0.0
0.256380 -0.009980 0.0
1.000117 0.001242 0.0
1.000556 0.003639 0.0
1.001348 0.005837 0.0
1.002377 0.007798 0.0
1.003537 0.009532 0.0
1.004747 0.011064 0.0
1.005955 0.012429 0.0
1.007126 0.013654 0.0
1.008242 0.014765 0.0
1.009292 0.015783 0.0
1.010273 0.016724 0.0
1.011183 0.017602 0.0
1.012024 0.018432 0.0
1.012797 0.019224 0.0
1.013506 0.019990 0.0
1.014153 0.020745 0.0
1.014741 0.021503 0.0
1.015270 0.022281 0.0
1.015743 0.023098 0.0
1.016160 0.023974 0.0
1.016520 0.024932 0.0
1.016824 0.025994 0.0
1.017071 0.027187 0.0
1.017266 0.028540 0.0
1.017413 0.030086 0.0
1.017526 0.031866 0.0
1.017626 0.033928 0.0
1.017750 0.036338 0.0
1.017959 0.039177 0.0
1.018345 0.042557 0.0
1.019055 0.046632 0.0
1.020309 0.051612 0.0
1.022441 0.057801 0.0
1.025948 0.065644 0.0
1.031568 0.075815 0.0
1.040373 0.089373 0.0
1.053897 0.108042 0.0
1.074257 0.134751 0.0
1.104188 0.174700 0.0
1.146680 0.237570 0.0
1.203194 0.342404 0.0
1.266351 0.529357 0.0
1.302658 0.877712 0.0
0.653784 1.824411 0.0
-1.881400 -0.717089 0.0
-3.731006 0.000000 0.0
-3.687752 0.000000 0.0
-3.663559 0.000000 0.0
-3.626697 0.000000 0.0
-3.551785 0.000000 0.0
-1.750501 -0.018850 0.0
-0.070624 0.095419 0.0
-0.194688 0.198660 0.0
-0.294243 0.280423 0.0
-0.379463 0.337659 0.0
-0.450856 0.369952 0.0
-0.509515 0.380783 0.0
-0.558952 0.375527 0.0
-0.606036 0.354693 0.0
-0.636829 0.283323 0.0
-0.593499 0.150642 0.0
-0.499237 0.134774 0.0
-0.443642 0.181857 0.0
-0.420626 0.182904 0.0
-0.387691 0.164389 0.0
-0.343152 0.158806 0.0
-0.306988 0.175924 0.0
-0.294497 0.199850 0.0
-0.306024 0.215063 0.0
-0.334395 0.214861 0.0
-0.370663 0.197114 0.0
-0.406355 0.164765 0.0
-0.436297 0.124798 0.0
-0.459201 0.083292 0.0
-0.475530 0.043225 0.0
-0.485646 0.005207 0.0
-0.489217 -0.030931 0.0
-0.485431 -0.066361 0.0
-0.473685 -0.100329 0.0
-0.454108 -0.131475 0.0
-0.427614 -0.158355 0.0
-0.395754 -0.179853 0.0
-0.360423 -0.195475 0.0
-0.323458 -0.205453 0.0
-0.286351 -0.210382 0.0
-0.250101 -0.211223 0.0
-0.215125 -0.208980 0.0
-0.181364 -0.204495 0.0
-0.148612 -0.198300 0.0
-0.116742 -0.190969 0.0
-0.085714 -0.182950 0.0
-0.055560 -0.174549 0.0
-0.026391 -0.165824 0.0
0.001548 -0.156784 0.0
0.027995 -0.147342 0.0
0.052787 -0.137293 0.0
0.075751 -0.126461 0.0
0.096653 -0.114829 0.0
0.115281 -0.102510 0.0
0.131493 -0.089750 0.0
0.145163 -0.076799 0.0
0.156216 -0.063790 0.0
0.164650 -0.050938 0.0
0.170500 -0.038449 0.0
0.173845 -0.026537 0.0
0.174808 -0.015404 0.0
0.173568 -0.005238 0.0
0.170312 0.003871 0.0
0.165274 0.011862 0.0
0.158749 0.018598 0.0
0.151039 0.024027 0.0
0.142450 0.028134 0.0
0.133281 0.030938 0.0
0.123816 0.032490 0.0
0.114319 0.032863 0.0
0.105032 0.032149 0.0
0.096166 0.030454 0.0
0.087907 0.027899 0.0
0.080415 0.024608 0.0
0.073821 0.020713 0.0
0.068229 0.016353 0.0
0.063714 0.011663 0.0
0.060322 0.006782 0.0
0.058075 0.001847 0.0
0.056966 -0.003005 0.0
0.056957 -0.007679 0.0
0.057986 -0.012057 0.0
0.059973 -0.016032 0.0
0.062814 -0.019512 0.0
0.066390 -0.022420 0.0
0.070567 -0.024696 0.0
0.075202 -0.026298 0.0
0.080146 -0.027205 0.0
0.085246 -0.027412 0.0
0.090350 -0.026935 0.0
0.095314 -0.025808 0.0
0.099999 -0.024087 0.0
0.104283 -0.021842 0.0
0.108059 -0.019163 0.0
0.111241 -0.016152 0.0
0.113766 -0.012926 0.0
0.115600 -0.009607 0.0
0.116734 -0.006321 0.0
0.117191 -0.003195 0.0
0.117021 -0.000349 0.0
0.116296 0.002130 0.0
0.115109 0.004146 0.0
0.113585 0.005608 0.0
0.111863 0.006444 0.0
0.110098 0.006605 0.0
0.108453 0.006067 0.0
0.107096 0.004832 0.0
0.106188 0.002928 0.0
0.105881 0.000412 0.0
0.106316 -0.002644 0.0
0.107613 -0.006150 0.0
0.109866 -0.009974 0.0
0.113133 -0.013971 0.0
0.117431 -0.017989 0.0
0.122738 -0.021880 0.0
0.128997 -0.025505 0.0
0.136115 -0.028750 0.0
0.143973 -0.031518 0.0
0.152432 -0.033739 0.0
0.161342 -0.035372 0.0
0.170547 -0.036403 0.0
0.179895 -0.036842 0.0
0.189241 -0.036726 0.0
0.198453 -0.036110 0.0
0.207417 -0.035068 0.0
0.216039 -0.033688 0.0
0.224247 -0.032067 0.0
0.231995 -0.030306 0.0
0.239262 -0.028511 0.0
0.246052 -0.026784 0.0
0.252394 -0.025220 0.0
0.258339 -0.023905 0.0
0.263959 -0.022910 0.0
0.269343 -0.022285 0.0
0.274591 -0.022062 0.0
0.279810 -0.022245 0.0
0.285105 -0.022815 0.0
0.290577 -0.023727 0.0
0.296311 -0.024910 0.0
0.302375 -0.026276 0.0
0.308811 -0.027718 0.0
0.315633 -0.029122 0.0
0.322824 -0.030370 0.0