# vtk DataFile Version 3.0
Vector Field
ASCII
DATASET RECTILINEAR_GRID
DIMENSIONS 200 50 1
X_COORDINATES 200 double
0.050000 0.150000 0.250000 0.350000 0.450000 0.550000 0.650000 0.750000 0.850000 0.950000 1.050000 1.150000 1.250000 1.350000 1.450000 1.550000 1.650000 1.750000 1.850000 1.950000 2.050000 2.150000 2.250000 2.350000 2.450000 2.550000 2.650000 2.750000 2.850000 2.950000 3.050000 3.150000 3.250000 3.350000 3.450000 3.550000 3.650000 3.750000 3.850000 3.950000 4.050000 4.150000 4.250000 4.350000 4.450000 4.550000 4.650000 4.750000 4.850000 4.950000 5.050000 5.150000 5.250000 5.350000 5.450000 5.550000 5.650000 5.750000 5.850000 5.950000 6.050000 6.150000 6.250000 6.350000 6.450000 6.550000 6.650000 6.750000 6.850000 6.950000 7.050000 7.150000 7.250000 7.350000 7.450000 7.550000 7.650000 7.750000 7.850000 7.950000 8.050000 8.150000 8.250000 8.350000 8.450000 8.550000 8.650000 8.750000 8.850000 8.950000 9.050000 9.150000 9.250000 9.350000 9.450000 9.550000 9.650000 9.750000 9.850000 9.950000 10.050000 10.150000 10.250000 10.350000 10.450000 10.550000 10.650000 10.750000 10.850000 10.950000 11.050000 11.150000 11.250000 11.350000 11.450000 11.550000 11.650000 11.750000 11.850000 11.950000 12.050000 12.150000 12.250000 12.350000 12.450000 12.550000 12.650000 12.750000 12.850000 12.950000 13.050000 13.150000 13.250000 13.350000 13.450000 13.550000 13.650000 13.750000 13.850000 13.950000 14.050000 14.150000 14.250000 14.350000 14.450000 14.550000 14.650000 14.750000 14.850000 14.950000 15.050000 15.150000 15.250000 15.350000 15.450000 15.550000 15.650000 15.750000 15.850000 15.950000 16.050000 16.150000 16.250000 16.350000 16.450000 16.550000 16.650000 16.750000 16.850000 16.950000 17.050000 17.150000 17.250000 17.350000 17.450000 17.550000 17.650000 17.750000 17.850000 17.950000 18.050000 18.150000 18.250000 18.350000 18.450000 18.550000 18.650000 18.750000 18.850000 18.950000 19.050000 19.150000 19.250000 19.350000 19.450000 19.550000 19.650000 19.750000 19.850000 19.950000 
Y_COORDINATES 50 double
0.050000 0.150000 0.250000 0.350000 0.450000 0.550000 0.650000 0.750000 0.850000 0.950000 1.050000 1.150000 1.250000 1.350000 1.450000 1.550000 1.650000 1.750000 1.850000 1.950000 2.050000 2.150000 2.250000 2.350000 2.450000 2.550000 2.650000 2.750000 2.850000 2.950000 3.050000 3.150000 3.250000 3.350000 3.450000 3.550000 3.650000 3.750000 3.850000 3.950000 4.050000 4.150000 4.250000 4.350000 4.450000 4.550000 4.650000 4.750000 4.850000 4.950000 
Z_COORDINATES 1 double
0.0
POINT_DATA 10000
VECTORS Vektorfeld double
0.996416 0.003584 0.0
0.986627 0.006205 0.0
0.973105 0.007317 0.0
0.957939 0.007850 0.0
0.941962 0.008127 0.0
0.925558 0.008276 0.0
0.908929 0.008353 0.0
0.892188 0.008387 0.0
0.875406 0.008394 0.0
0.858627 0.008385 0.0
0.841876 0.008366 0.0
0.825170 0.008341 0.0
0.808516 0.008313 0.0
0.791916 0.008286 0.0
0.775370 0.008260 0.0
0.758873 0.008237 0.0
0.742419 0.008217 0.0
0.725999 0.008203 0.0
0.709602 0.008194 0.0
0.693213 0.008195 0.0
0.676813 0.008206 0.0
0.660376 0.008231 0.0
0.643870 0.008275 0.0
0.627252 0.008343 0.0
0.610467 0.008442 0.0
0.593443 0.008581 0.0
0.576089 0.008773 0.0
0.558286 0.009031 0.0
0.539878 0.009377 0.0
0.520664 0.009837 0.0
0.500377 0.010450 0.0
0.478663 0.011264 0.0
0.455050 0.012349 0.0
0.428905 0.013796 0.0
0.399387 0.015723 0.0
0.365387 0.018278 0.0
0.325481 0.021629 0.0
0.277919 0.025932 0.0
0.220735 0.031252 0.0
0.152100 0.037384 0.0
0.071008 0.043708 0.0
-0.018644 0.045944 0.0
-0.083051 0.018462 0.0
-0.050757 -0.050757 0.0
0.500000 0.050752 0.0
1.000000 0.000000 0.0
1.000000 0.000000 0.0
1.000000 0.000000 0.0
1.000000 0.000000 0.0
1.000000 0.000000 0.0
0.500000 0.029176 0.0
0.029209 -0.029209 0.0
0.076802 -0.018383 0.0
0.101791 -0.006606 0.0
0.110629 -0.002232 0.0
0.118959 -0.006097 0.0
0.115741 0.009315 0.0
0.081224 0.025201 0.0
0.021846 0.034177 0.0
-0.052661 0.040330 0.0
-0.139326 0.046335 0.0
-0.236769 0.051108 0.0
-0.342079 0.054202 0.0
-0.451802 0.055520 0.0
-0.562275 0.054953 0.0
-0.669664 0.052436 0.0
-0.770139 0.048039 0.0
-0.860172 0.041994 0.0
-0.936863 0.034697 0.0
-0.998236 0.026675 0.0
-1.043436 0.018525 0.0
-1.072774 0.010813 0.0
-1.087555 0.003968 0.0
-1.089671 -0.001853 0.0
-1.081170 -0.006647 0.0
-1.064484 -0.010039 0.0
-1.042390 -0.012055 0.0
-1.017421 -0.012914 0.0
-0.991614 -0.012893 0.0
-0.966444 -0.012278 0.0
-0.942837 -0.011329 0.0
-0.921239 -0.010269 0.0
-0.901705 -0.009265 0.0
-0.884003 -0.008436 0.0
-0.867721 -0.007846 0.0
-0.852355 -0.007520 0.0
-0.837392 -0.007443 0.0
-0.822367 -0.007581 0.0
-0.806905 -0.007881 0.0
-0.790741 -0.008283 0.0
-0.773728 -0.008730 0.0
-0.755825 -0.009173 0.0
-0.737080 -0.009572 0.0
-0.717602 -0.009905 0.0
-0.697533 -0.010164 0.0
-0.677019 -0.010351 0.0
-0.656189 -0.010479 0.0
-0.635141 -0.010568 0.0
-0.613936 -0.010637 0.0
-0.592597 -0.010702 0.0
-0.571122 -0.010774 0.0
-0.549490 -0.010858 0.0
-0.527678 -0.010954 0.0
-0.505668 -0.011056 0.0
-0.483454 -0.011158 0.0
-0.461048 -0.011249 0.0
-0.438478 -0.011321 0.0
-0.415797 -0.011360 0.0
-0.393083 -0.011354 0.0
-0.370435 -0.011293 0.0
-0.347976 -0.011167 0.0
-0.325837 -0.010972 0.0
-0.304160 -0.010705 0.0
-0.283088 -0.010367 0.0
-0.262762 -0.009959 0.0
-0.243318 -0.009485 0.0
-0.224877 -0.008956 0.0
-0.207535 -0.008386 0.0
-0.191356 -0.007794 0.0
-0.176360 -0.007202 0.0
-0.162527 -0.006631 0.0
-0.149796 -0.006100 0.0
-0.138076 -0.005620 0.0
-0.127261 -0.005196 0.0
-0.117235 -0.004829 0.0
-0.107894 -0.004512 0.0
-0.099147 -0.004235 0.0
-0.090922 -0.003990 0.0
-0.083164 -0.003769 0.0
-0.075825 -0.003570 0.0
-0.068867 -0.003388 0.0
-0.062260 -0.003219 0.0
-0.055991 -0.003050 0.0
-0.050073 -0.002869 0.0
-0.044528 -0.002676 0.0
-0.039357 -0.002496 0.0
-0.034558 -0.002303 0.0
-0.030231 -0.002023 0.0
-0.026612 -0.001595 0.0
-0.024051 -0.000966 0.0
-0.022986 -0.000099 0.0
-0.023681 0.000794 0.0
-0.025981 0.001506 0.0
-0.029698 0.002212 0.0
-0.034848 0.002938 0.0
-0.041468 0.003682 0.0
-0.049585 0.004434 0.0
-0.059202 0.005182 0.0
-0.070297 0.005913 0.0
-0.082827 0.006617 0.0
-0.096726 0.007282 0.0
-0.111910 0.007903 0.0
-0.128285 0.008472 0.0
-0.145746 0.008989 0.0
-0.164185 0.009450 0.0
-0.183491 0.009856 0.0
-0.203556 0.010209 0.0
-0.224272 0.010507 0.0
-0.245532 0.010753 0.0
-0.267229 0.010945 0.0
-0.289260 0.011086 0.0
-0.311521 0.011175 0.0
-0.333912 0.011216 0.0
-0.356336 0.011209 0.0
-0.378701 0.011157 0.0
-0.400920 0.011062 0.0
-0.422908 0.010926 0.0
-0.444583 0.010750 0.0
-0.465867 0.010534 0.0
-0.486682 0.010281 0.0
-0.506953 0.009990 0.0
-0.526610 0.009666 0.0
-0.545587 0.009311 0.0
-0.563827 0.008930 0.0
-0.581284 0.008527 0.0
-0.597920 0.008109 0.0
-0.613708 0.007679 0.0
-0.628628 0.007241 0.0
-0.642668 0.006799 0.0
-0.655820 0.006353 0.0
-0.668075 0.005903 0.0
-0.679428 0.005450 0.0
-0.689871 0.004993 0.0
-0.699395 0.004532 0.0
-0.707995 0.004068 0.0
-0.715668 0.003605 0.0
-0.722421 0.003148 0.0
-0.728272 0.002703 0.0
-0.733252 0.002278 0.0
-0.737410 0.001881 0.0
-0.740813 0.001522 0.0
-0.743538 0.001204 0.0
-0.745672 0.000930 0.0
-0.747301 0.000699 0.0
-0.748509 0.000509 0.0
-0.749371 0.000354 0.0
-0.749958 0.000233 0.0
-0.750339 0.000149 0.0
-0.750606 0.000118 0.0
-0.750904 0.000181 0.0
1.001712 0.005455 0.0
1.005185 0.010650 0.0
1.008178 0.013400 0.0
1.010103 0.015008 0.0
1.011020 0.016028 0.0
1.011080 0.016719 0.0
1.010409 0.017211 0.0
1.009102 0.017576 0.0
1.007231 0.017858 0.0
1.004846 0.018085 0.0
1.001985 0.018277 0.0
0.998675 0.018445 0.0
0.994937 0.018601 0.0
0.990784 0.018751 0.0
0.986227 0.018899 0.0
0.981271 0.019050 0.0
0.975921 0.019208 0.0
0.970177 0.019376 0.0
0.964036 0.019559 0.0
0.957490 0.019764 0.0
0.950528 0.019998 0.0
0.943131 0.020273 0.0
0.935270 0.020600 0.0
0.926909 0.020997 0.0
0.917997 0.021486 0.0
0.908465 0.022093 0.0
0.898224 0.022856 0.0
0.887155 0.023820 0.0
0.875104 0.025047 0.0
0.861864 0.026621 0.0
0.847160 0.028656 0.0
0.830623 0.031308 0.0
0.811756 0.034786 0.0
0.789881 0.039378 0.0
0.764079 0.045460 0.0
0.733107 0.053512 0.0
0.695306 0.064102 0.0
0.648513 0.077813 0.0
0.590063 0.095006 0.0
0.517069 0.115259 0.0
0.427870 0.136125 0.0
0.324531 0.146518 0.0
0.202831 0.103995 0.0
0.067881 -0.033633 0.0
0.500000 0.033602 0.0
1.000000 0.000000 0.0
1.000000 0.000000 0.0
1.000000 0.000000 0.0
1.000000 0.000000 0.0
1.000000 0.000000 0.0
0.500000 0.081446 0.0
0.023122 -0.081541 0.0
0.059757 -0.050278 0.0
0.076396 -0.016340 0.0
0.054074 0.020986 0.0
-0.013166 0.029595 0.0
-0.091593 0.055268 0.0
-0.162364 0.084535 0.0
-0.233205 0.105063 0.0
-0.311344 0.122089 0.0
-0.399070 0.138966 0.0
-0.496111 0.152961 0.0
-0.600803 0.162351 0.0
-0.710087 0.166378 0.0
-0.820074 0.164557 0.0
-0.926547 0.156693 0.0
-1.025312 0.143022 0.0
-1.112529 0.124261 0.0
-1.185003 0.101595 0.0
-1.240452 0.076598 0.0
-1.277699 0.051049 0.0
-1.296753 0.026682 0.0
-1.298801 0.004930 0.0
-1.286303 -0.013197 0.0
-1.263312 -0.026794 0.0
-1.234051 -0.035839 0.0
-1.201596 -0.040805 0.0
-1.168274 -0.042455 0.0
-1.135773 -0.041659 0.0
-1.105185 -0.039270 0.0
-1.077084 -0.036046 0.0
-1.051628 -0.032607 0.0
-1.028668 -0.029421 0.0
-1.007853 -0.026798 0.0
-0.988709 -0.024910 0.0
-0.970723 -0.023808 0.0
-0.953398 -0.023444 0.0
-0.936299 -0.023705 0.0
-0.919086 -0.024433 0.0
-0.901526 -0.025455 0.0
-0.883492 -0.026606 0.0
-0.864950 -0.027742 0.0
-0.845942 -0.028756 0.0
-0.826557 -0.029585 0.0
-0.806904 -0.030207 0.0
-0.787088 -0.030637 0.0
-0.767194 -0.030916 0.0
-0.747276 -0.031098 0.0
-0.727353 -0.031236 0.0
-0.707419 -0.031376 0.0
-0.687446 -0.031548 0.0
-0.667400 -0.031762 0.0
-0.647250 -0.032012 0.0
-0.626975 -0.032283 0.0
-0.606568 -0.032551 0.0
-0.586040 -0.032791 0.0
-0.565419 -0.032970 0.0
-0.544761 -0.033050 0.0
-0.524148 -0.032992 0.0
-0.503687 -0.032763 0.0
-0.483504 -0.032339 0.0
-0.463735 -0.031707 0.0
-0.444520 -0.030862 0.0
-0.425999 -0.029804 0.0
-0.408309 -0.028538 0.0
-0.391577 -0.027082 0.0
-0.375913 -0.025465 0.0
-0.361399 -0.023732 0.0
-0.348087 -0.021938 0.0
-0.335996 -0.020144 0.0
-0.325114 -0.018405 0.0
-0.315408 -0.016764 0.0
-0.306833 -0.015250 0.0
-0.299337 -0.013878 0.0
-0.292863 -0.012646 0.0
-0.287359 -0.011540 0.0
-0.282775 -0.010538 0.0
-0.279069 -0.009617 0.0
-0.276215 -0.008756 0.0
-0.274198 -0.007938 0.0
-0.273029 -0.007148 0.0
-0.272735 -0.006360 0.0
-0.273377 -0.005535 0.0
-0.275055 -0.004623 0.0
-0.277935 -0.003587 0.0
-0.282252 -0.002440 0.0
-0.288145 -0.001265 0.0
-0.295510 -0.000024 0.0
-0.304144 0.001421 0.0
-0.313870 0.003181 0.0
-0.324484 0.005304 0.0
-0.335969 0.007572 0.0
-0.348686 0.009744 0.0
-0.362931 0.011936 0.0
-0.378733 0.014165 0.0
-0.396072 0.016415 0.0
-0.414908 0.018655 0.0
-0.435179 0.020849 0.0
-0.456800 0.022963 0.0
-0.479667 0.024964 0.0
-0.503661 0.026827 0.0
-0.528650 0.028532 0.0
-0.554498 0.030066 0.0
-0.581067 0.031424 0.0
-0.608219 0.032606 0.0
-0.635828 0.033615 0.0
-0.663771 0.034458 0.0
-0.691936 0.035139 0.0
-0.720219 0.035664 0.0
-0.748525 0.036037 0.0
-0.776760 0.036260 0.0
-0.804838 0.036340 0.0
-0.832674 0.036279 0.0
-0.860187 0.036083 0.0
-0.887298 0.035758 0.0
-0.913929 0.035310 0.0
-0.940005 0.034742 0.0
-0.965453 0.034058 0.0
-0.990203 0.033261 0.0
-1.014188 0.032354 0.0
-1.037343 0.031343 0.0
-1.059609 0.030236 0.0
-1.080934 0.029043 0.0
-1.101275 0.027779 0.0
-1.120598 0.026458 0.0
-1.138880 0.025096 0.0
-1.156109 0.023708 0.0
-1.172284 0.022306 0.0
-1.187408 0.020898 0.0
-1.201492 0.019489 0.0
-1.214548 0.018079 0.0
-1.226588 0.016667 0.0
-1.237622 0.015252 0.0
-1.247659 0.013833 0.0
-1.256706 0.012413 0.0
-1.264772 0.010999 0.0
-1.271867 0.009602 0.0
-1.278010 0.008241 0.0
-1.283230 0.006938 0.0
-1.287567 0.005717 0.0
-1.291079 0.004601 0.0
-1.293836 0.003607 0.0
-1.295924 0.002747 0.0
-1.297433 0.002021 0.0
-1.298462 0.001423 0.0
-1.299102 0.000942 0.0
-1.299444 0.000573 0.0
-1.299571 0.000318 0.0
-1.299565 0.000209 0.0
-1.299502 0.000326 0.0
1.000666 0.003077 0.0
1.002515 0.007707 0.0
1.004948 0.010918 0.0
1.007350 0.013164 0.0
1.009510 0.014793 0.0
1.011383 0.016022 0.0
1.012973 0.016989 0.0
1.014299 0.017778 0.0
1.015381 0.018446 0.0
1.016231 0.019033 0.0
1.016855 0.019566 0.0
1.017257 0.020064 0.0
1.017435 0.020543 0.0
1.017383 0.021013 0.0
1.017096 0.021482 0.0
1.016564 0.021955 0.0
1.015778 0.022439 0.0
1.014726 0.022941 0.0
1.013394 0.023467 0.0
1.011768 0.024027 0.0
1.009831 0.024635 0.0
1.007560 0.025304 0.0
1.004931 0.026057 0.0
1.001912 0.026919 0.0
0.998465 0.027923 0.0
0.994540 0.029113 0.0
0.990076 0.030542 0.0
0.984994 0.032284 0.0
0.979191 0.034436 0.0
0.972537 0.037127 0.0
0.964855 0.040536 0.0
0.955911 0.044909 0.0
0.945380 0.050583 0.0
0.932810 0.058026 0.0
0.917554 0.067870 0.0
0.898667 0.080960 0.0
0.874747 0.098376 0.0
0.843679 0.121399 0.0
0.802262 0.151287 0.0
0.745656 0.188576 0.0
0.666619 0.231044 0.0
0.553701 0.267857 0.0
0.387847 0.270210 0.0
0.144350 0.178598 0.0
0.500000 -0.178665 0.0
1.000000 0.000000 0.0
1.000000 0.000000 0.0
1.000000 0.000000 0.0
1.000000 0.000000 0.0
1.000000 0.000000 0.0
0.500000 0.111220 0.0
0.006699 -0.111363 0.0
0.000921 -0.051312 0.0
-0.047198 0.016173 0.0
-0.112217 0.075814 0.0
-0.176352 0.106142 0.0
-0.246867 0.127662 0.0
-0.314744 0.150788 0.0
-0.377232 0.172140 0.0
-0.440057 0.195975 0.0
-0.509462 0.222212 0.0
-0.587970 0.245264 0.0
-0.674585 0.261354 0.0
-0.766456 0.268529 0.0
-0.859722 0.265660 0.0
-0.950007 0.252348 0.0
-1.032877 0.229003 0.0
-1.104220 0.196840 0.0
-1.160572 0.157841 0.0
-1.199461 0.114690 0.0
-1.219798 0.070540 0.0
-1.222147 0.028594 0.0
-1.208607 -0.008475 0.0
-1.183408 -0.037489 0.0
-1.151088 -0.057815 0.0
-1.114873 -0.070294 0.0
-1.077528 -0.076149 0.0
-1.041146 -0.076816 0.0
-1.007145 -0.073801 0.0
-0.976337 -0.068525 0.0
-0.949021 -0.062208 0.0
-0.925108 -0.055814 0.0
-0.904234 -0.050047 0.0
-0.885863 -0.045358 0.0
-0.869379 -0.041977 0.0
-0.854163 -0.039943 0.0
-0.839649 -0.039148 0.0
-0.825368 -0.039380 0.0
-0.810975 -0.040363 0.0
-0.796254 -0.041806 0.0
-0.781113 -0.043431 0.0
-0.765567 -0.045005 0.0
-0.749708 -0.046360 0.0
-0.733670 -0.047403 0.0
-0.717598 -0.048113 0.0
-0.701620 -0.048525 0.0
-0.685826 -0.048716 0.0
-0.670266 -0.048777 0.0
-0.654943 -0.048801 0.0
-0.639828 -0.048859 0.0
-0.624871 -0.048994 0.0
-0.610014 -0.049218 0.0
-0.595207 -0.049514 0.0
-0.580410 -0.049853 0.0
-0.565600 -0.050198 0.0
-0.550764 -0.050508 0.0
-0.535912 -0.050726 0.0
-0.521079 -0.050784 0.0
-0.506338 -0.050613 0.0
-0.491788 -0.050154 0.0
-0.477544 -0.049375 0.0
-0.463725 -0.048259 0.0
-0.450450 -0.046800 0.0
-0.437838 -0.044999 0.0
-0.426003 -0.042867 0.0
-0.415055 -0.040433 0.0
-0.405089 -0.037745 0.0
-0.396181 -0.034873 0.0
-0.388384 -0.031905 0.0
-0.381728 -0.028925 0.0
-0.376228 -0.026007 0.0
-0.371889 -0.023206 0.0
-0.368710 -0.020561 0.0
-0.366682 -0.018092 0.0
-0.365783 -0.015806 0.0
-0.365974 -0.013693 0.0
-0.367213 -0.011731 0.0
-0.369458 -0.009884 0.0
-0.372681 -0.008120 0.0
-0.376870 -0.006400 0.0
-0.382038 -0.004688 0.0
-0.388198 -0.002952 0.0
-0.395345 -0.001155 0.0
-0.403421 0.000752 0.0
-0.412324 0.002821 0.0
-0.421933 0.005078 0.0
-0.432278 0.007455 0.0
-0.443578 0.009921 0.0
-0.456015 0.012547 0.0
-0.469630 0.015397 0.0
-0.484418 0.018490 0.0
-0.500360 0.021813 0.0
-0.517443 0.025302 0.0
-0.535673 0.028854 0.0
-0.555054 0.032429 0.0
-0.575547 0.035984 0.0
-0.597090 0.039466 0.0
-0.619604 0.042823 0.0
-0.642994 0.046000 0.0
-0.667152 0.048952 0.0
-0.691960 0.051641 0.0
-0.717295 0.054043 0.0
-0.743033 0.056141 0.0
-0.769050 0.057934 0.0
-0.795226 0.059425 0.0
-0.821448 0.060627 0.0
-0.847612 0.061553 0.0
-0.873624 0.062220 0.0
-0.899397 0.062640 0.0
-0.924857 0.062825 0.0
-0.949934 0.062784 0.0
-0.974567 0.062527 0.0
-0.998699 0.062060 0.0
-1.022278 0.061393 0.0
-1.045254 0.060534 0.0
-1.067579 0.059490 0.0
-1.089208 0.058267 0.0
-1.110100 0.056873 0.0
-1.130215 0.055311 0.0
-1.149517 0.053590 0.0
-1.167973 0.051719 0.0
-1.185557 0.049710 0.0
-1.202245 0.047582 0.0
-1.218020 0.045356 0.0
-1.232871 0.043055 0.0
-1.246793 0.040703 0.0
-1.259785 0.038323 0.0
-1.271853 0.035934 0.0
-1.283008 0.033550 0.0
-1.293264 0.031178 0.0
-1.302640 0.028821 0.0
-1.311156 0.026480 0.0
-1.318835 0.024152 0.0
-1.325703 0.021838 0.0
-1.331788 0.019541 0.0
-1.337120 0.017270 0.0
-1.341735 0.015042 0.0
-1.345672 0.012882 0.0
-1.348973 0.010819 0.0
-1.351686 0.008886 0.0
-1.353860 0.007117 0.0
-1.355548 0.005537 0.0
-1.356806 0.004163 0.0
-1.357690 0.003000 0.0
-1.358260 0.002042 0.0
-1.358572 0.001276 0.0
-1.358681 0.000690 0.0
-1.358632 0.000279 0.0
-1.358452 0.000061 0.0
-1.358125 0.000084 0.0
1.000303 0.002107 0.0
1.001300 0.005831 0.0
1.002852 0.008809 0.0
1.004601 0.011123 0.0
1.006348 0.012926 0.0
1.008008 0.014358 0.0
1.009547 0.015524 0.0
1.010959 0.016503 0.0
1.012249 0.017350 0.0
1.013420 0.018108 0.0
1.014478 0.018809 0.0
1.015422 0.019475 0.0
1.016252 0.020124 0.0
1.016965 0.020770 0.0
1.017556 0.021421 0.0
1.018017 0.022086 0.0
1.018342 0.022770 0.0
1.018521 0.023483 0.0
1.018545 0.024233 0.0
1.018402 0.025030 0.0
1.018082 0.025890 0.0
1.017569 0.026832 0.0
1.016850 0.027878 0.0
1.015906 0.029060 0.0
1.014718 0.030417 0.0
1.013263 0.031999 0.0
1.011515 0.033869 0.0
1.009442 0.036113 0.0
1.007010 0.038842 0.0
1.004176 0.042208 0.0
1.000893 0.046420 0.0
0.997098 0.051765 0.0
0.992709 0.058648 0.0
0.987601 0.067640 0.0
0.981565 0.079548 0.0
0.974222 0.095512 0.0
0.964837 0.117130 0.0
0.951952 0.146597 0.0
0.932645 0.186814 0.0
0.901022 0.241278 0.0
0.845212 0.313188 0.0
0.741688 0.402154 0.0
0.547806 0.495650 0.0
0.210756 0.533705 0.0
0.500000 -0.533811 0.0
1.000000 0.000000 0.0
1.000000 0.000000 0.0
1.000000 0.000000 0.0
1.000000 0.000000 0.0
1.000000 0.000000 0.0
0.500000 0.095231 0.0
-0.022644 -0.095418 0.0
-0.081362 -0.002761 0.0
-0.147860 0.082239 0.0
-0.211131 0.138039 0.0
-0.277539 0.174461 0.0
-0.342428 0.194747 0.0
-0.398067 0.207219 0.0
-0.439944 0.220073 0.0
-0.476007 0.246930 0.0
-0.519815 0.284471 0.0
-0.576842 0.318540 0.0
-0.645196 0.343047 0.0
-0.721659 0.355170 0.0
-0.802274 0.352900 0.0
-0.882281 0.335400 0.0
-0.956604 0.303144 0.0
-1.020266 0.257704 0.0
-1.068690 0.201753 0.0
-1.098276 0.139254 0.0
-1.107284 0.075322 0.0
-1.096641 0.015519 0.0
-1.070517 -0.035065 0.0
-1.034293 -0.072320 0.0
-0.992518 -0.097079 0.0
-0.948938 -0.110826 0.0
-0.906351 -0.115547 0.0
-0.866733 -0.113418 0.0
-0.831293 -0.106638 0.0
-0.800557 -0.097231 0.0
-0.774502 -0.086873 0.0
-0.752717 -0.076848 0.0
-0.734545 -0.068060 0.0
-0.719198 -0.061063 0.0
-0.705848 -0.056105 0.0
-0.693710 -0.053170 0.0
-0.682098 -0.052048 0.0
-0.670471 -0.052388 0.0
-0.658455 -0.053765 0.0
-0.645839 -0.055741 0.0
-0.632575 -0.057902 0.0
-0.618743 -0.059911 0.0
-0.604522 -0.061534 0.0
-0.590136 -0.062653 0.0
-0.575816 -0.063256 0.0
-0.561758 -0.063419 0.0
-0.548103 -0.063270 0.0
-0.534928 -0.062958 0.0
-0.522251 -0.062620 0.0
-0.510044 -0.062362 0.0
-0.498254 -0.062240 0.0
-0.486819 -0.062264 0.0
-0.475684 -0.062409 0.0
-0.464809 -0.062629 0.0
-0.454160 -0.062881 0.0
-0.443710 -0.063111 0.0
-0.433446 -0.063239 0.0
-0.423392 -0.063157 0.0
-0.413614 -0.062759 0.0
-0.404203 -0.061969 0.0
-0.395250 -0.060758 0.0
-0.386831 -0.059115 0.0
-0.379011 -0.057038 0.0
-0.371857 -0.054527 0.0
-0.365441 -0.051590 0.0
-0.359841 -0.048258 0.0
-0.355138 -0.044588 0.0
-0.351408 -0.040668 0.0
-0.348707 -0.036608 0.0
-0.347070 -0.032514 0.0
-0.346521 -0.028467 0.0
-0.347074 -0.024533 0.0
-0.348732 -0.020755 0.0
-0.351484 -0.017174 0.0
-0.355289 -0.013818 0.0
-0.360083 -0.010695 0.0
-0.365783 -0.007790 0.0
-0.372309 -0.005054 0.0
-0.379611 -0.002425 0.0
-0.387676 0.000161 0.0
-0.396507 0.002750 0.0
-0.406114 0.005378 0.0
-0.416520 0.008067 0.0
-0.427750 0.010836 0.0
-0.439821 0.013711 0.0
-0.452750 0.016726 0.0
-0.466540 0.019941 0.0
-0.481182 0.023378 0.0
-0.496680 0.027025 0.0
-0.513040 0.030893 0.0
-0.530242 0.034983 0.0
-0.548247 0.039268 0.0
-0.567011 0.043693 0.0
-0.586493 0.048175 0.0
-0.606651 0.052646 0.0
-0.627432 0.057040 0.0
-0.648767 0.061289 0.0
-0.670579 0.065326 0.0
-0.692783 0.069089 0.0
-0.715288 0.072525 0.0
-0.738002 0.075590 0.0
-0.760831 0.078259 0.0
-0.783684 0.080517 0.0
-0.806473 0.082364 0.0
-0.829114 0.083811 0.0
-0.851528 0.084877 0.0
-0.873644 0.085584 0.0
-0.895398 0.085955 0.0
-0.916731 0.086013 0.0
-0.937595 0.085776 0.0
-0.957946 0.085262 0.0
-0.977748 0.084483 0.0
-0.996966 0.083454 0.0
-1.015575 0.082186 0.0
-1.033547 0.080689 0.0
-1.050859 0.078972 0.0
-1.067490 0.077045 0.0
-1.083420 0.074917 0.0
-1.098632 0.072594 0.0
-1.113114 0.070090 0.0
-1.126853 0.067415 0.0
-1.139845 0.064589 0.0
-1.152086 0.061633 0.0
-1.163578 0.058572 0.0
-1.174322 0.055434 0.0
-1.184326 0.052248 0.0
-1.193597 0.049040 0.0
-1.202144 0.045832 0.0
-1.209978 0.042641 0.0
-1.217112 0.039477 0.0
-1.223561 0.036347 0.0
-1.229343 0.033252 0.0
-1.234476 0.030194 0.0
-1.238986 0.027174 0.0
-1.242898 0.024202 0.0
-1.246246 0.021289 0.0
-1.249064 0.018456 0.0
-1.251391 0.015732 0.0
-1.253271 0.013150 0.0
-1.254747 0.010744 0.0
-1.255865 0.008551 0.0
-1.256670 0.006596 0.0
-1.257206 0.004897 0.0
-1.257517 0.003460 0.0
-1.257642 0.002276 0.0
-1.257616 0.001329 0.0
-1.257469 0.000599 0.0
-1.257216 0.000068 0.0
-1.256857 -0.000268 0.0
-1.256376 -0.000396 0.0
1.000168 0.001635 0.0
1.000772 0.004701 0.0
1.001804 0.007355 0.0
1.003067 0.009565 0.0
1.004419 0.011384 0.0
1.005773 0.012886 0.0
1.007085 0.014145 0.0
1.008332 0.015222 0.0
1.009507 0.016167 0.0
1.010605 0.017021 0.0
1.011626 0.017817 0.0
1.012569 0.018579 0.0
1.013431 0.019327 0.0
1.014209 0.020075 0.0
1.014902 0.020833 0.0
1.015503 0.021610 0.0
1.016010 0.022414 0.0
1.016417 0.023253 0.0
1.016719 0.024136 0.0
1.016912 0.025076 0.0
1.016990 0.026087 0.0
1.016949 0.027189 0.0
1.016784 0.028406 0.0
1.016490 0.029770 0.0
1.016064 0.031321 0.0
1.015507 0.033107 0.0
1.014821 0.035195 0.0
1.014015 0.037665 0.0
1.013111 0.040626 0.0
1.012145 0.044224 0.0
1.011177 0.048655 0.0
1.010306 0.054196 0.0
1.009676 0.061236 0.0
1.009498 0.070338 0.0
1.010053 0.082329 0.0
1.011677 0.098450 0.0
1.014672 0.120583 0.0
1.019046 0.151655 0.0
1.023819 0.196290 0.0
1.025298 0.261946 0.0
1.012817 0.360812 0.0
0.958276 0.512596 0.0
0.790964 0.746403 0.0
0.333252 1.077713 0.0
0.500000 -1.077885 0.0
1.000000 0.000000 0.0
1.000000 0.000000 0.0
1.000000 0.000000 0.0
1.000000 0.000000 0.0
1.000000 0.000000 0.0
0.500000 0.030700 0.0
-0.041846 -0.030929 0.0
-0.119334 0.068954 0.0
-0.190795 0.148483 0.0
-0.262079 0.206349 0.0
-0.331662 0.242143 0.0
-0.394668 0.254960 0.0
-0.438213 0.246189 0.0
-0.449183 0.233950 0.0
-0.443687 0.263620 0.0
-0.455946 0.323849 0.0
-0.493769 0.374013 0.0
-0.548215 0.410373 0.0
-0.615138 0.431231 0.0
-0.690586 0.432902 0.0
-0.768820 0.413639 0.0
-0.843415 0.373823 0.0
-0.907729 0.315001 0.0
-0.954978 0.240128 0.0
-0.979377 0.154864 0.0
-0.978277 0.067620 0.0
-0.953073 -0.012627 0.0
-0.911127 -0.074990 0.0
-0.861207 -0.118540 0.0
-0.808654 -0.145187 0.0
-0.757256 -0.157696 0.0
-0.709561 -0.158959 0.0
-0.667266 -0.151921 0.0
-0.631283 -0.139558 0.0
-0.601755 -0.124574 0.0
-0.578234 -0.109106 0.0
-0.559900 -0.094734 0.0
-0.545735 -0.082510 0.0
-0.534649 -0.073046 0.0
-0.525566 -0.066554 0.0
-0.517508 -0.062917 0.0
-0.509654 -0.061768 0.0
-0.501375 -0.062573 0.0
-0.492256 -0.064716 0.0
-0.482083 -0.067579 0.0
-0.470826 -0.070586 0.0
-0.458620 -0.073265 0.0
-0.445720 -0.075302 0.0
-0.432440 -0.076551 0.0
-0.419097 -0.077021 0.0
-0.405968 -0.076842 0.0
-0.393252 -0.076219 0.0
-0.381061 -0.075376 0.0
-0.369424 -0.074517 0.0
-0.358309 -0.073787 0.0
-0.347654 -0.073260 0.0
-0.337397 -0.072937 0.0
-0.327499 -0.072769 0.0
-0.317949 -0.072694 0.0
-0.308750 -0.072664 0.0
-0.299909 -0.072621 0.0
-0.291452 -0.072451 0.0
-0.283461 -0.071990 0.0
-0.276074 -0.071091 0.0
-0.269441 -0.069680 0.0
-0.263686 -0.067756 0.0
-0.258883 -0.065338 0.0
-0.255078 -0.062440 0.0
-0.252291 -0.059067 0.0
-0.250527 -0.055231 0.0
-0.249784 -0.050960 0.0
-0.250065 -0.046308 0.0
-0.251379 -0.041365 0.0
-0.253715 -0.036276 0.0
-0.257040 -0.031158 0.0
-0.261321 -0.026091 0.0
-0.266526 -0.021151 0.0
-0.272635 -0.016370 0.0
-0.279615 -0.011826 0.0
-0.287399 -0.007578 0.0
-0.295914 -0.003627 0.0
-0.305127 0.000056 0.0
-0.315022 0.003520 0.0
-0.325597 0.006877 0.0
-0.336899 0.010225 0.0
-0.348972 0.013589 0.0
-0.361806 0.016979 0.0
-0.375346 0.020412 0.0
-0.389541 0.023916 0.0
-0.404363 0.027524 0.0
-0.419795 0.031275 0.0
-0.435821 0.035208 0.0
-0.452414 0.039346 0.0
-0.469551 0.043693 0.0
-0.487209 0.048243 0.0
-0.505353 0.052979 0.0
-0.523939 0.057863 0.0
-0.542913 0.062835 0.0
-0.562218 0.067820 0.0
-0.581800 0.072742 0.0
-0.601599 0.077524 0.0
-0.621552 0.082093 0.0
-0.641595 0.086377 0.0
-0.661660 0.090309 0.0
-0.681685 0.093835 0.0
-0.701607 0.096915 0.0
-0.721368 0.099524 0.0
-0.740914 0.101651 0.0
-0.760195 0.103300 0.0
-0.779169 0.104488 0.0
-0.797793 0.105238 0.0
-0.816033 0.105578 0.0
-0.833855 0.105537 0.0
-0.851231 0.105141 0.0
-0.868136 0.104417 0.0
-0.884551 0.103386 0.0
-0.900457 0.102066 0.0
-0.915840 0.100474 0.0
-0.930687 0.098623 0.0
-0.944990 0.096526 0.0
-0.958737 0.094194 0.0
-0.971920 0.091638 0.0
-0.984533 0.088867 0.0
-0.996569 0.085892 0.0
-1.008022 0.082727 0.0
-1.018891 0.079386 0.0
-1.029172 0.075891 0.0
-1.038865 0.072265 0.0
-1.047970 0.068536 0.0
-1.056490 0.064734 0.0
-1.064426 0.060888 0.0
-1.071783 0.057027 0.0
-1.078564 0.053174 0.0
-1.084777 0.049347 0.0
-1.090431 0.045560 0.0
-1.095538 0.041820 0.0
-1.100110 0.038133 0.0
-1.104166 0.034502 0.0
-1.107723 0.030933 0.0
-1.110803 0.027436 0.0
-1.113426 0.024026 0.0
-1.115618 0.020729 0.0
-1.117405 0.017573 0.0
-1.118813 0.014596 0.0
-1.119873 0.011835 0.0
-1.120621 0.009326 0.0
-1.121092 0.007097 0.0
-1.121326 0.005167 0.0
-1.121366 0.003540 0.0
-1.121251 0.002206 0.0
-1.121019 0.001141 0.0
-1.120696 0.000315 0.0
-1.120289 -0.000308 0.0
-1.119807 -0.000734 0.0
-1.119251 -0.000966 0.0
1.000106 0.001361 0.0
1.000507 0.003972 0.0
1.001229 0.006332 0.0
1.002164 0.008389 0.0
1.003219 0.010153 0.0
1.004324 0.011658 0.0
1.005434 0.012952 0.0
1.006521 0.014080 0.0
1.007570 0.015085 0.0
1.008571 0.016003 0.0
1.009519 0.016866 0.0
1.010408 0.017699 0.0
1.011234 0.018520 0.0
1.011993 0.019345 0.0
1.012681 0.020183 0.0
1.013295 0.021045 0.0
1.013832 0.021937 0.0
1.014288 0.022868 0.0
1.014661 0.023846 0.0
1.014950 0.024884 0.0
1.015154 0.025996 0.0
1.015273 0.027201 0.0
1.015309 0.028523 0.0
1.015267 0.029990 0.0
1.015154 0.031639 0.0
1.014985 0.033515 0.0
1.014783 0.035675 0.0
1.014584 0.038188 0.0
1.014447 0.041144 0.0
1.014459 0.044659 0.0
1.014762 0.048885 0.0
1.015565 0.054034 0.0
1.017192 0.060401 0.0
1.020122 0.068419 0.0
1.025072 0.078743 0.0
1.033087 0.092397 0.0
1.045666 0.111061 0.0
1.064880 0.137589 0.0
1.093399 0.177062 0.0
1.134130 0.238963 0.0
1.188448 0.341958 0.0
1.248950 0.525488 0.0
1.282180 0.867592 0.0
0.642725 1.796401 0.0
-1.847760 -0.705590 0.0
-3.664046 0.000000 0.0
-3.621823 0.000000 0.0
-3.600147 0.000000 0.0
-3.569162 0.000000 0.0
-3.507396 0.000000 0.0
-1.732844 -0.005581 0.0
-0.066512 0.066663 0.0
-0.180638 0.152211 0.0
-0.265685 0.221734 0.0
-0.334638 0.273336 0.0
-0.395521 0.305623 0.0
-0.450722 0.309686 0.0
-0.479202 0.263488 0.0
-0.435072 0.183491 0.0
-0.351212 0.224723 0.0
-0.323686 0.347479 0.0
-0.352811 0.417332 0.0
-0.399439 0.468128 0.0
-0.462577 0.503537 0.0
-0.540160 0.513626 0.0
-0.624085 0.495075 0.0
-0.705843 0.448740 0.0
-0.776812 0.375368 0.0
-0.826563 0.276760 0.0
-0.844760 0.160828 0.0
-0.826570 0.042366 0.0
-0.779784 -0.059362 0.0
-0.718952 -0.131033 0.0
-0.654565 -0.176804 0.0
-0.592468 -0.201573 0.0
-0.535368 -0.209808 0.0
-0.484809 -0.205102 0.0
-0.441954 -0.190929 0.0
-0.407401 -0.171086 0.0
-0.380921 -0.149054 0.0
-0.361689 -0.127380 0.0
-0.348486 -0.107997 0.0
-0.339880 -0.092019 0.0
-0.334439 -0.080064 0.0
-0.330811 -0.072247 0.0
-0.327829 -0.068265 0.0
-0.324566 -0.067537 0.0
-0.320368 -0.069280 0.0
-0.314856 -0.072639 0.0
-0.307870 -0.076815 0.0
-0.299430 -0.081048 0.0
-0.289734 -0.084704 0.0
-0.279090 -0.087405 0.0
-0.267840 -0.088978 0.0
-0.256325 -0.089450 0.0
-0.244849 -0.089018 0.0
-0.233634 -0.087973 0.0
-0.222807 -0.086639 0.0
-0.212395 -0.085304 0.0
-0.202336 -0.084173 0.0
-0.192523 -0.083340 0.0
-0.182846 -0.082790 0.0
-0.173234 -0.082427 0.0
-0.163678 -0.082143 0.0
-0.154222 -0.081869 0.0
-0.144949 -0.081530 0.0
-0.135990 -0.080957 0.0
-0.127548 -0.079917 0.0
-0.119864 -0.078236 0.0
-0.113166 -0.075866 0.0
-0.107647 -0.072845 0.0
-0.103472 -0.069226 0.0
-0.100776 -0.065053 0.0
-0.099654 -0.060363 0.0
-0.100160 -0.055193 0.0
-0.102313 -0.049587 0.0
-0.106106 -0.043606 0.0
-0.111520 -0.037339 0.0
-0.118464 -0.031022 0.0
-0.126753 -0.024797 0.0
-0.136211 -0.018714 0.0
-0.146622 -0.012912 0.0
-0.157810 -0.007314 0.0
-0.169745 -0.001967 0.0
-0.182326 0.002928 0.0
-0.195365 0.007421 0.0
-0.208747 0.011604 0.0
-0.222457 0.015577 0.0
-0.236591 0.019529 0.0
-0.251281 0.023565 0.0
-0.266540 0.027581 0.0
-0.282262 0.031543 0.0
-0.298368 0.035494 0.0
-0.314822 0.039483 0.0
-0.331601 0.043556 0.0
-0.348686 0.047760 0.0
-0.366055 0.052118 0.0
-0.383679 0.056653 0.0
-0.401530 0.061374 0.0
-0.419583 0.066273 0.0
-0.437807 0.071319 0.0
-0.456162 0.076464 0.0
-0.474596 0.081642 0.0
-0.493057 0.086780 0.0
-0.511493 0.091799 0.0
-0.529851 0.096624 0.0
-0.548084 0.101180 0.0
-0.566146 0.105394 0.0
-0.583995 0.109205 0.0
-0.601591 0.112560 0.0
-0.618903 0.115424 0.0
-0.635905 0.117777 0.0
-0.652575 0.119613 0.0
-0.668898 0.120943 0.0
-0.684864 0.121785 0.0
-0.700464 0.122166 0.0
-0.715691 0.122117 0.0
-0.730540 0.121668 0.0
-0.745005 0.120851 0.0
-0.759082 0.119690 0.0
-0.772765 0.118211 0.0
-0.786052 0.116433 0.0
-0.798937 0.114375 0.0
-0.811416 0.112049 0.0
-0.823486 0.109471 0.0
-0.835140 0.106651 0.0
-0.846374 0.103599 0.0
-0.857182 0.100326 0.0
-0.867557 0.096844 0.0
-0.877495 0.093166 0.0
-0.886988 0.089309 0.0
-0.896032 0.085293 0.0
-0.904618 0.081143 0.0
-0.912740 0.076886 0.0
-0.920387 0.072552 0.0
-0.927552 0.068172 0.0
-0.934226 0.063774 0.0
-0.940402 0.059384 0.0
-0.946076 0.055024 0.0
-0.951251 0.050711 0.0
-0.955932 0.046457 0.0
-0.960133 0.042270 0.0
-0.963871 0.038158 0.0
-0.967165 0.034128 0.0
-0.970037 0.030192 0.0
-0.972509 0.026365 0.0
-0.974597 0.022671 0.0
-0.976320 0.019139 0.0
-0.977690 0.015808 0.0