# vtk DataFile Version 3.0
Scalar Field
ASCII
DATASET RECTILINEAR_GRID
DIMENSIONS 200 50 1
X_COORDINATES 200 double
0.050000 0.150000 0.250000 0.350000 0.450000 0.550000 0.650000 0.750000 0.850000 0.950000 1.050000 1.150000 1.250000 1.350000 1.450000 1.550000 1.650000 1.750000 1.850000 1.950000 2.050000 2.150000 2.250000 2.350000 2.450000 2.550000 2.650000 2.750000 2.850000 2.950000 3.050000 3.150000 3.250000 3.350000 3.450000 3.550000 3.650000 3.750000 3.850000 3.950000 4.050000 4.150000 4.250000 4.350000 4.450000 4.550000 4.650000 4.750000 4.850000 4.950000 5.050000 5.150000 5.250000 5.350000 5.450000 5.550000 5.650000 5.750000 5.850000 5.950000 6.050000 6.150000 6.250000 6.350000 6.450000 6.550000 6.650000 6.750000 6.850000 6.950000 7.050000 7.150000 7.250000 7.350000 7.450000 7.550000 7.650000 7.750000 7.850000 7.950000 8.050000 8.150000 8.250000 8.350000 8.450000 8.550000 8.650000 8.750000 8.850000 8.950000 9.050000 9.150000 9.250000 9.350000 9.450000 9.550000 9.650000 9.750000 9.850000 9.950000 10.050000 10.150000 10.250000 10.350000 10.450000 10.550000 10.650000 10.750000 10.850000 10.950000 11.050000 11.150000 11.250000 11.350000 11.450000 11.550000 11.650000 11.750000 11.850000 11.950000 12.050000 12.150000 12.250000 12.350000 12.450000 12.550000 12.650000 12.750000 12.850000 12.950000 13.050000 13.150000 13.250000 13.350000 13.450000 13.550000 13.650000 13.750000 13.850000 13.950000 14.050000 14.150000 14.250000 14.350000 14.450000 14.550000 14.650000 14.750000 14.850000 14.950000 15.050000 15.150000 15.250000 15.350000 15.450000 15.550000 15.650000 15.750000 15.850000 15.950000 16.050000 16.150000 16.250000 16.350000 16.450000 16.550000 16.650000 16.750000 16.850000 16.950000 17.050000 17.150000 17.250000 17.350000 17.450000 17.550000 17.650000 17.750000 17.850000 17.950000 18.050000 18.150000 18.250000 18.350000 18.450000 18.550000 18.650000 18.750000 18.850000 18.950000 19.050000 19.150000 19.250000 19.350000 19.450000 19.550000 19.650000 19.750000 19.850000 19.950000 
Y_COORDINATES 50 double
0.050000 0.150000 0.250000 0.350000 0.450000 0.550000 0.650000 0.750000 0.850000 0.950000 1.050000 1.150000 1.250000 1.350000 1.450000 1.550000 1.650000 1.750000 1.850000 1.950000 2.050000 2.150000 2.250000 2.350000 2.450000 2.550000 2.650000 2.750000 2.850000 2.950000 3.050000 3.150000 3.250000 3.350000 3.450000 3.550000 3.650000 3.750000 3.850000 3.950000 4.050000 4.150000 4.250000 4.350000 4.450000 4.550000 4.650000 4.750000 4.850000 4.950000 
Z_COORDINATES 1 double
0.0
POINT_DATA 10000
SCALARS Skalarfeld double 1
LOOKUP_TABLE default
10.248071
10.235645
10.228567
10.223866
10.220401
10.217669
10.215419
10.213510
10.211857
10.210407
10.209124
10.207985
10.206973
10.206079
10.205297
10.204625
10.204066
10.203624
10.203307
10.203124
10.203089
10.203219
10.203532
10.204054
10.204812
10.205842
10.207187
10.208898
10.211041
10.213695
10.216958
10.220952
10.225822
10.231741
10.238904
10.247505
10.257694
10.269485
10.282585
10.296135
10.308418
10.315716
10.317470
10.335261
10.335261
0.000000
0.000000
0.000000
0.000000
0.000000
-2.753991
-2.753991
-2.761141
-2.771876
-2.783323
-2.796009
-2.810979
-2.830175
-2.854185
-2.880039
-2.900999
-2.910620
-2.907118
-2.890318
-2.860489
-2.818653
-2.766813
-2.708247
-2.647156
-2.588016
-2.534970
-2.491343
-2.459348
-2.440006
-2.433260
-2.438210
-2.453351
-2.476794
-2.506444
-2.540155
-2.575856
-2.611667
-2.645999
-2.677621
-2.705688
-2.729699
-2.749429
-2.764863
-2.776134
-2.783467
-2.787125
-2.787366
-2.784417
-2.778466
-2.769673
-2.758181
-2.744137
-2.727717
-2.709130
-2.688635
-2.666556
-2.643236
-2.619048
-2.594420
-2.569796
-2.545616
-2.522396
-2.500540
-2.480416
-2.462332
-2.446514
-2.433104
-2.422152
-2.413611
-2.407328
-2.403048
-2.400412
-2.398968
-2.398172
-2.397409
-2.396005
-2.393253
-2.388447
-2.380909
-2.370033
-2.355322
-2.336421
-2.313146
-2.285484
-2.253593
-2.217789
-2.178542
-2.136459
-2.092257
-2.046725
-2.000681
-1.954964
-1.910385
-1.867671
-1.827435
-1.790175
-1.756432
-1.726655
-1.701103
-1.679902
-1.662952
-1.650223
-1.641652
-1.637010
-1.635965
-1.638098
-1.642726
-1.649461
-1.657750
-1.666990
-1.676540
-1.685757
-1.694036
-1.700837
-1.705697
-1.708252
-1.708251
-1.705576
-1.700243
-1.692402
-1.682332
-1.670418
-1.657132
-1.643003
-1.628587
-1.614440
-1.601090
-1.589010
-1.578608
-1.570208
-1.564050
-1.560286
-1.558984
-1.560135
-1.563664
-1.569438
-1.577278
-1.586972
-1.598280
-1.610949
-1.624719
-1.639328
-1.654524
-1.670067
-1.685744
-1.701287
-1.716463
-1.731157
-1.745262
-1.758687
-1.771385
-1.783362
-1.794692
-1.805583
-1.816741
10.234000
10.230327
10.226154
10.222561
10.219584
10.217098
10.214985
10.213160
10.211562
10.210149
10.208892
10.207771
10.206772
10.205885
10.205107
10.204436
10.203874
10.203426
10.203098
10.202901
10.202847
10.202951
10.203232
10.203713
10.204420
10.205384
10.206646
10.208252
10.210259
10.212738
10.215774
10.219471
10.223956
10.229375
10.235896
10.243691
10.252908
10.263599
10.275605
10.288341
10.300408
10.309723
10.321946
10.347944
10.347944
0.000000
0.000000
0.000000
0.000000
0.000000
-2.754410
-2.754410
-2.761580
-2.771347
-2.781922
-2.794004
-2.807381
-2.826364
-2.852549
-2.883111
-2.910228
-2.925077
-2.924677
-2.908940
-2.878008
-2.833073
-2.776727
-2.712973
-2.646688
-2.582896
-2.526161
-2.480067
-2.446870
-2.427455
-2.421525
-2.427923
-2.444921
-2.470439
-2.502225
-2.537999
-2.575579
-2.612998
-2.648609
-2.681158
-2.709812
-2.734116
-2.753907
-2.769237
-2.780305
-2.787391
-2.790800
-2.790812
-2.787663
-2.781536
-2.772577
-2.760913
-2.746664
-2.730014
-2.711145
-2.690308
-2.667872
-2.644176
-2.619570
-2.594523
-2.569490
-2.544951
-2.521327
-2.499096
-2.478661
-2.460345
-2.444383
-2.430926
-2.420028
-2.411648
-2.405633
-2.401726
-2.399565
-2.398689
-2.398545
-2.398501
-2.397862
-2.395897
-2.391868
-2.385067
-2.374855
-2.360700
-2.342225
-2.319238
-2.291725
-2.259842
-2.223904
-2.184394
-2.141928
-2.097249
-2.051171
-2.004504
-1.958107
-1.912848
-1.869485
-1.828665
-1.790781
-1.756444
-1.726188
-1.700261
-1.678841
-1.661594
-1.648652
-1.640050
-1.635486
-1.634612
-1.636974
-1.642014
-1.649204
-1.657967
-1.667701
-1.677760
-1.687491
-1.696272
-1.703541
-1.708815
-1.711714
-1.711974
-1.709467
-1.704204
-1.696335
-1.686143
-1.674022
-1.660456
-1.645990
-1.631197
-1.616650
-1.602895
-1.590421
-1.579649
-1.570917
-1.564472
-1.560472
-1.558987
-1.560009
-1.563460
-1.569203
-1.577054
-1.586793
-1.598177
-1.610945
-1.624829
-1.639562
-1.654881
-1.670528
-1.686239
-1.701812
-1.717081
-1.731870
-1.746057
-1.759522
-1.772204
-1.784084
-1.795138
-1.805240
-1.813232
10.226704
10.225342
10.222975
10.220463
10.218111
10.215996
10.214114
10.212438
10.210939
10.209595
10.208385
10.207295
10.206315
10.205439
10.204663
10.203986
10.203410
10.202940
10.202581
10.202341
10.202232
10.202266
10.202459
10.202828
10.203393
10.204180
10.205215
10.206530
10.208162
10.210150
10.212541
10.215383
10.218726
10.222623
10.227115
10.232235
10.237992
10.244373
10.251387
10.259241
10.268975
10.284660
10.317691
10.376139
10.376138
0.000000
0.000000
0.000000
0.000000
0.000000
-2.749249
-2.749249
-2.758667
-2.767047
-2.776533
-2.788284
-2.803709
-2.826469
-2.858244
-2.895802
-2.931415
-2.956246
-2.964637
-2.953622
-2.921634
-2.869804
-2.802641
-2.726642
-2.648390
-2.574030
-2.508997
-2.457412
-2.421581
-2.402008
-2.397797
-2.407216
-2.428060
-2.457856
-2.494018
-2.533980
-2.575334
-2.615957
-2.654113
-2.688523
-2.718374
-2.743275
-2.763179
-2.778279
-2.788919
-2.795500
-2.798406
-2.797967
-2.794431
-2.787959
-2.778669
-2.766664
-2.751979
-2.734861
-2.715413
-2.693853
-2.670551
-2.645924
-2.620455
-2.594547
-2.568653
-2.543262
-2.518871
-2.495976
-2.475003
-2.456290
-2.440085
-2.426554
-2.415768
-2.407693
-2.402182
-2.398976
-2.397702
-2.397889
-2.398961
-2.400258
-2.401045
-2.400538
-2.397948
-2.392510
-2.383520
-2.370386
-2.352688
-2.330216
-2.302954
-2.271060
-2.234838
-2.194798
-2.151586
-2.105998
-2.058924
-2.011140
-1.963500
-1.917016
-1.872481
-1.830666
-1.791582
-1.756165
-1.725001
-1.698329
-1.676262
-1.658724
-1.645718
-1.637152
-1.632774
-1.632235
-1.635080
-1.640770
-1.648733
-1.658357
-1.669001
-1.679995
-1.690661
-1.700348
-1.708461
-1.714482
-1.718002
-1.718732
-1.716527
-1.711389
-1.703469
-1.693059
-1.680569
-1.666509
-1.651451
-1.635999
-1.620758
-1.606304
-1.593153
-1.581751
-1.572454
-1.565522
-1.561122
-1.559329
-1.560133
-1.563451
-1.569142
-1.577010
-1.586828
-1.598339
-1.611274
-1.625354
-1.640302
-1.655845
-1.671719
-1.687669
-1.703476
-1.718944
-1.733890
-1.748158
-1.761667
-1.774328
-1.786047
-1.796667
-1.805792
-1.812518
10.222008
10.221364
10.219947
10.218204
10.216400
10.214659
10.213032
10.211531
10.210155
10.208895
10.207743
10.206692
10.205736
10.204870
10.204093
10.203405
10.202807
10.202303
10.201897
10.201596
10.201408
10.201342
10.201409
10.201620
10.201988
10.202526
10.203246
10.204157
10.205267
10.206572
10.208060
10.209693
10.211406
10.213082
10.214535
10.215486
10.215537
10.214187
10.210968
10.205970
10.201459
10.205934
10.239814
10.325240
10.325239
0.000000
0.000000
0.000000
0.000000
0.000000
-2.732877
-2.732877
-2.743520
-2.755094
-2.765289
-2.778543
-2.797874
-2.827877
-2.870640
-2.921087
-2.971150
-3.011291
-3.033491
-3.030235
-2.995427
-2.929872
-2.842769
-2.745906
-2.648178
-2.556955
-2.479005
-2.419366
-2.380295
-2.361448
-2.360723
-2.375419
-2.402627
-2.439314
-2.482411
-2.528930
-2.576115
-2.621593
-2.663492
-2.700506
-2.731893
-2.757405
-2.777194
-2.791681
-2.801432
-2.807041
-2.809017
-2.807761
-2.803552
-2.796485
-2.786643
-2.774159
-2.758763
-2.740629
-2.720105
-2.697544
-2.673211
-2.647502
-2.620866
-2.593764
-2.566685
-2.540157
-2.514733
-2.490948
-2.469253
-2.450001
-2.433467
-2.419840
-2.409215
-2.401571
-2.396767
-2.394540
-2.394508
-2.396181
-2.398960
-2.402139
-2.404927
-2.406471
-2.405907
-2.402392
-2.395139
-2.383465
-2.366882
-2.345160
-2.318280
-2.286416
-2.249816
-2.209064
-2.164846
-2.118027
-2.069660
-2.020406
-1.970974
-1.922784
-1.876539
-1.832916
-1.792436
-1.755810
-1.723535
-1.695915
-1.673105
-1.655124
-1.641934
-1.633403
-1.629276
-1.629192
-1.632690
-1.639228
-1.648204
-1.658971
-1.670844
-1.683113
-1.695063
-1.705999
-1.715279
-1.722342
-1.726736
-1.728138
-1.726378
-1.721446
-1.713492
-1.702821
-1.689866
-1.675169
-1.659340
-1.643026
-1.626874
-1.611499
-1.597456
-1.585220
-1.575172
-1.567592
-1.562656
-1.560444
-1.560948
-1.564077
-1.569681
-1.577553
-1.587453
-1.599110
-1.612242
-1.626558
-1.641767
-1.657586
-1.673743
-1.689981
-1.706063
-1.721776
-1.736931
-1.751371
-1.764985
-1.777677
-1.789339
-1.799811
-1.808787
-1.816075
10.218529
10.218160
10.217246
10.216009
10.214626
10.213210
10.211825
10.210502
10.209255
10.208088
10.207003
10.205996
10.205067
10.204213
10.203435
10.202733
10.202109
10.201564
10.201103
10.200730
10.200451
10.200271
10.200195
10.200229
10.200377
10.200640
10.201014
10.201487
10.202035
10.202613
10.203143
10.203501
10.203486
10.202789
10.200929
10.197183
10.190459
10.179151
10.160967
10.132897
10.091902
10.038302
9.986929
9.989728
9.989728
0.000000
0.000000
0.000000
0.000000
0.000000
-2.704653
-2.704653
-2.719555
-2.735706
-2.750727
-2.766938
-2.788684
-2.826444
-2.885741
-2.955161
-3.028347
-3.092739
-3.137086
-3.147084
-3.106222
-3.014738
-2.893872
-2.766145
-2.641113
-2.526289
-2.430750
-2.361068
-2.319409
-2.303619
-2.309236
-2.332192
-2.368762
-2.415266
-2.468047
-2.523580
-2.578654
-2.630571
-2.677291
-2.717501
-2.750587
-2.776531
-2.795778
-2.809074
-2.817302
-2.821338
-2.821842
-2.819309
-2.814123
-2.806195
-2.795408
-2.781708
-2.765424
-2.746472
-2.725017
-2.701318
-2.675709
-2.648611
-2.620504
-2.591903
-2.563355
-2.535434
-2.508740
-2.483856
-2.461260
-2.441336
-2.424389
-2.410643
-2.400214
-2.393102
-2.389175
-2.388162
-2.389673
-2.393204
-2.398117
-2.403656
-2.408960
-2.413089
-2.415087
-2.414015
-2.408981
-2.399186
-2.384054
-2.363328
-2.336973
-2.305239
-2.268156
-2.226540
-2.181197
-2.132941
-2.082695
-2.031423
-1.980135
-1.929915
-1.881636
-1.836063
-1.793870
-1.755714
-1.722095
-1.693353
-1.669679
-1.651133
-1.637673
-1.629146
-1.625287
-1.625724
-1.629983
-1.637507
-1.647669
-1.659783
-1.673124
-1.686933
-1.700446
-1.712914
-1.723640
-1.732007
-1.737511
-1.739786
-1.738629
-1.734014
-1.726090
-1.715173
-1.701728
-1.686332
-1.669644
-1.652359
-1.635175
-1.618753
-1.603691
-1.590500
-1.579589
-1.571259
-1.565700
-1.562996
-1.563137
-1.566028
-1.571506
-1.579352
-1.589308
-1.601091
-1.614401
-1.628934
-1.644387
-1.660467
-1.676891
-1.693396
-1.709736
-1.725679
-1.741023
-1.755612
-1.769336
-1.782122
-1.793901
-1.804608
-1.814158
-1.823115
10.215741
10.215501
10.214869
10.213960
10.212885
10.211731
10.210557
10.209398
10.208276
10.207203
10.206185
10.205225
10.204324
10.203484
10.202704
10.201987
10.201333
10.200745
10.200225
10.199775
10.199398
10.199097
10.198873
10.198724
10.198649
10.198637
10.198672
10.198724
10.198744
10.198651
10.198319
10.197547
10.196027
10.193275
10.188539
10.180640
10.167694
10.146631
10.112251
10.055262
9.957764
9.782061
9.442293
9.048534
3.532331
-3.832122
-3.651902
-3.616484
-3.571827
-3.448243
-2.936169
-2.674974
-2.694579
-2.717503
-2.739953
-2.757580
-2.771910
-2.812371
-2.898620
-2.990180
-3.100056
-3.202079
-3.282805
-3.320433
-3.269551
-3.128735
-2.955268
-2.785345
-2.624904
-2.479149
-2.361072
-2.280327
-2.237371
-2.227526
-2.243420
-2.278105
-2.327298
-2.386687
-2.451962
-2.518950
-2.583889
-2.643688
-2.696120
-2.739905
-2.774637
-2.800612
-2.818679
-2.830018
-2.835919
-2.837719
-2.836159
-2.831809
-2.824882
-2.815594
-2.803883
-2.789513
-2.772419
-2.752554
-2.730009
-2.704989
-2.677861
-2.649087
-2.619205
-2.588805
-2.558507
-2.528942
-2.500748
-2.474560
-2.450898
-2.430180
-2.412749
-2.398859
-2.388655
-2.382156
-2.379251
-2.379641
-2.382946
-2.388646
-2.396066
-2.404382
-2.412650
-2.419841
-2.424894
-2.426744
-2.424374
-2.416910
-2.403665
-2.384224
-2.358525
-2.326737
-2.289211
-2.246668
-2.199939
-2.149950
-2.097718
-2.044314
-1.990838
-1.938363
-1.887850
-1.840151
-1.796023
-1.756130
-1.720995
-1.690990
-1.666339
-1.647125
-1.633309
-1.624733
-1.621122
-1.622091
-1.627153
-1.635732
-1.647176
-1.660763
-1.675726
-1.691256
-1.706534
-1.720753
-1.733149
-1.743043
-1.749869
-1.753211
-1.752827
-1.748669
-1.740883
-1.729801
-1.715918
-1.699854
-1.682320
-1.664065
-1.645841
-1.628361
-1.612267
-1.598106
-1.586319
-1.577224
-1.571024
-1.567810
-1.567566
-1.570190
-1.575505
-1.583278
-1.593235
-1.605076
-1.618486
-1.633149
-1.648749
-1.664986
-1.681571
-1.698237
-1.714738
-1.730817
-1.746249
-1.760894
-1.774660
-1.787547
-1.799536
-1.810707
-1.821233
-1.832396
10.213403
10.213233
10.212770
10.212077
10.211224
10.210273
10.209273
10.208257
10.207249
10.206264
10.205311
10.204396
10.203523
10.202695
10.201913
10.201179
10.200495
10.199861
10.199278
10.198749
10.198273
10.197850
10.197477
10.197150
10.196860
10.196590
10.196314
10.195992
10.195560
10.194915
10.193906
10.192291
10.189700
10.185556
10.178943
10.168390
10.151464
10.123980
10.078322
9.999449
9.853837
9.553912
8.822751
6.288526
-1.983873
-3.832121
-3.651902
-3.616484
-3.571827
-3.448242
-3.197363
-2.909906
-2.837682
-2.817665
-2.799520
-2.773538
-2.748927
-2.773867
-2.882850
-3.013259
-3.194031
-3.344825
-3.475983
-3.572297
-3.500553
-3.274475
-3.021133
-2.802937
-2.599815
-2.413131
-2.266162
-2.174403
-2.134717
-2.135589
-2.164984
-2.214742
-2.279761
-2.355040
-2.435549
-2.516348
-2.593002
-2.661967
-2.720796
-2.768321
-2.804446
-2.829857
-2.845931
-2.854380
-2.856957
-2.855319
-2.850842
-2.844231
-2.835683
-2.825198
-2.812557
-2.797423
-2.779519
-2.758685
-2.734950
-2.708414
-2.679523
-2.648788
-2.616822
-2.584312
-2.551972
-2.520512
-2.490618
-2.462934
-2.438046
-2.416427
-2.398455
-2.384414
-2.374473
-2.368670
-2.366902
-2.368905
-2.374273
-2.382448
-2.392717
-2.404200
-2.415874
-2.426604
-2.435197
-2.440433
-2.441137
-2.436287
-2.425096
-2.407087
-2.382136
-2.350423
-2.312412
-2.268843
-2.220631
-2.168805
-2.114483
-2.058826
-2.003004
-1.948141
-1.895273
-1.845331
-1.799134
-1.757378
-1.720619
-1.689259
-1.663546
-1.643582
-1.629336
-1.620644
-1.617226
-1.618686
-1.624524
-1.634145
-1.646873
-1.661957
-1.678586
-1.695907
-1.713043
-1.729125
-1.743324
-1.754889
-1.763188
-1.767750
-1.768291
-1.764735
-1.757225
-1.746109
-1.731912
-1.715302
-1.697042
-1.677938
-1.658797
-1.640380
-1.623372
-1.608357
-1.595800
-1.586038
-1.579283
-1.575626
-1.575046
-1.577429
-1.582581
-1.590251
-1.600146
-1.611950
-1.625334
-1.639970
-1.655538
-1.671731
-1.688266
-1.704883
-1.721368
-1.737404
-1.752676
-1.767174
-1.780867
-1.793727
-1.805871
-1.817505
-1.828994
-1.842529
10.211386
10.211256
10.210900
10.210353
10.209660
10.208865
10.208005
10.207109
10.206200
10.205293
10.204400
10.203527
10.202680
10.201862
10.201076
10.200324
10.199608
10.198927
10.198282
10.197673
10.197098
10.196555
10.196040
10.195543
10.195053
10.194550
10.194004
10.193371
10.192583
10.191538
10.190081
10.187977
10.184863
10.180173
10.173010
10.161913
10.144436
10.116308
10.069655
9.989100
9.840892
9.541221
8.857225
7.022755
0.206828
-2.833291
-3.482451
-3.629009
-3.670941
-3.676315
-3.650108
-3.626401
-3.591128
-3.514299
-3.387131
-3.225160
-3.076327
-3.005911
-3.044758
-3.160792
-3.327401
-3.489011
-3.644949
-3.765845
-3.680310
-3.364344
-3.078556
-2.813826
-2.558458
-2.322675
-2.143528
-2.042496
-2.012643
-2.031226
-2.076623
-2.144375
-2.228098
-2.322072
-2.420432
-2.517290
-2.607384
-2.686670
-2.752380
-2.803590
-2.840687
-2.864763
-2.877313
-2.881465
-2.879912
-2.874537
-2.866819
-2.857575
-2.847078
-2.835197
-2.821524
-2.805538
-2.786754
-2.764847
-2.739715
-2.711492
-2.680583
-2.647570
-2.613176
-2.578205
-2.543488
-2.509833
-2.478001
-2.448681
-2.422488
-2.399936
-2.381437
-2.367301
-2.357719
-2.352745
-2.352289
-2.356100
-2.363762
-2.374693
-2.388131
-2.403140
-2.418617
-2.433321
-2.445903
-2.454959
-2.459128
-2.457217
-2.448319
-2.431886
-2.407763
-2.376166
-2.337636
-2.292988
-2.243234
-2.189510
-2.133034
-2.075053
-2.016809
-1.959494
-1.904212
-1.851965
-1.803630
-1.759949
-1.721511
-1.688746
-1.661926
-1.641163
-1.626427
-1.617553
-1.614251
-1.616113
-1.622628
-1.633185
-1.647087
-1.663558
-1.681753
-1.700777
-1.719704
-1.737606
-1.753589
-1.766836
-1.776650
-1.782499
-1.784054
-1.781214
-1.774117
-1.763123
-1.748792
-1.731837
-1.713071
-1.693356
-1.673547
-1.654450
-1.636788
-1.621171
-1.608084
-1.597878
-1.590766
-1.586837
-1.586060
-1.588303
-1.593355
-1.600942
-1.610748
-1.622438
-1.635668
-1.650099
-1.665409
-1.681292
-1.697472
-1.713703
-1.729800
-1.745335
-1.760254
-1.774440
-1.787850
-1.800514
-1.812584
-1.824378
-1.836472
-1.851926
10.209610
10.209507
10.209222
10.208776
10.208199
10.207521
10.206772
10.205975
10.205149
10.204310
10.203468
10.202632
10.201807
10.200998
10.200207
10.199436
10.198686
10.197958
10.197251
10.196563
10.195893
10.195235
10.194584
10.193930
10.193260
10.192553
10.191781
10.190903
10.189860
10.188564
10.186889
10.184646
10.181549
10.177160
10.170788
10.161313
10.146866
10.124197
10.087198
10.021485
9.894827
9.620641
8.917593
6.387904
-1.937288
-3.845231
-3.707369
-3.744723
-3.843098
-4.030586
-4.298921
-4.697188
-4.822363
-4.775371
-4.574505
-4.237652
-3.862134
-3.559451
-3.394303
-3.366391
-3.437782
-3.551813
-3.659759
-3.695387
-3.564779
-3.282710
-2.973612
-2.691528
-2.427867
-2.193858
-2.023566
-1.927467
-1.899727
-1.921579
-1.983135
-2.070795
-2.175637
-2.290802
-2.409427
-2.524399
-2.629470
-2.719870
-2.792762
-2.847430
-2.884732
-2.905429
-2.913647
-2.912803
-2.906112
-2.896103
-2.884524
-2.872291
-2.859614
-2.846175
-2.831334
-2.814333
-2.794474
-2.771258
-2.744479
-2.714241
-2.680964
-2.645313
-2.608127
-2.570346
-2.532931
-2.496806
-2.462819
-2.431721
-2.404159
-2.380675
-2.361704
-2.347571
-2.338482
-2.334507
-2.335564
-2.341409
-2.351624
-2.365602
-2.382539
-2.401443
-2.421132
-2.440252
-2.457293
-2.470636
-2.478684
-2.480040
-2.473654
-2.458911
-2.435656
-2.404162
-2.365066
-2.319292
-2.267961
-2.212322
-2.153686
-2.093385
-2.032728
-1.972971
-1.915283
-1.860727
-1.810238
-1.764608
-1.724465
-1.690269
-1.662311
-1.640712
-1.625437
-1.616311
-1.613026
-1.615161
-1.622187
-1.633478
-1.648321
-1.665921
-1.685410
-1.705863
-1.726317
-1.745799
-1.763360
-1.778124
-1.789335
-1.796407
-1.798969
-1.796895
-1.790314
-1.779603
-1.765352
-1.748314
-1.729350
-1.709367
-1.689260
-1.669869
-1.651940
-1.636103
-1.622850
-1.612536
-1.605373
-1.601436
-1.600682
-1.602959
-1.608034
-1.615607
-1.625341
-1.636878
-1.649858
-1.663931
-1.678771
-1.694076
-1.709575
-1.725024
-1.740194
-1.755021
-1.769231
-1.782738
-1.795519
-1.807626
-1.819235
-1.830705
-1.842684
-1.858672
10.208025
10.207941
10.207704
10.207330
10.206838
10.206249
10.205586
10.204869
10.204112
10.203329
10.202532
10.201727
10.200920
10.200116
10.199318
10.198527
10.197744
10.196969
10.196201
10.195438
10.194676
10.193910
10.193133
10.192335
10.191504
10.190621
10.189664
10.188599
10.187384
10.185962
10.184253
10.182148
10.179490
10.176054
10.171496
10.165276
10.156498
10.143591
10.122645
10.086729
10.019350
9.880840
9.572795
9.166097
3.614405
-3.845232
-3.707370
-3.744723
-3.843098
-4.030586
-5.017978
-5.737035
-5.652061
-5.874506
-5.835943
-5.444459
-4.857345
-4.268454
-3.809247
-3.526244
-3.399057
-3.369857
-3.369084
-3.327082
-3.192469
-2.973719
-2.722543
-2.486918
-2.269438
-2.073423
-1.914495
-1.821499
-1.795215
-1.824804
-1.898255
-2.002347
-2.126956
-2.264419
-2.405570
-2.540900
-2.662733
-2.765208
-2.845253
-2.902768
-2.938960
-2.955808
-2.958117
-2.950556
-2.937280
-2.921476
-2.905204
-2.889432
-2.874224
-2.859004
-2.842826
-2.824629
-2.803460
-2.778634
-2.749836
-2.717155
-2.681055
-2.642307
-2.601894
-2.560909
-2.520457
-2.481585
-2.445232
-2.412212
-2.383211
-2.358794
-2.339413
-2.325406
-2.316984
-2.314221
-2.317039
-2.325195
-2.338265
-2.355623
-2.376422
-2.399614
-2.423940
-2.447937
-2.469938
-2.488046
-2.500356
-2.505226
-2.501460
-2.488398
-2.465927
-2.434423
-2.394657
-2.347692
-2.294778
-2.237271
-2.176572
-2.114079
-2.051157
-1.989109
-1.929153
-1.872404
-1.819848
-1.772324
-1.730504
-1.694881
-1.665766
-1.643287
-1.627404
-1.617924
-1.614519
-1.616741
-1.624040
-1.635771
-1.651204
-1.669533
-1.689878
-1.711300
-1.732817
-1.753429
-1.772153
-1.788071
-1.800382
-1.808457
-1.811890
-1.810534
-1.804516
-1.794226
-1.780280
-1.763467
-1.744681
-1.724862
-1.704929
-1.685739
-1.668047
-1.652482
-1.639536
-1.629552
-1.622730
-1.619130
-1.618686
-1.621225
-1.626488
-1.634153
-1.643858
-1.655226
-1.667884
-1.681473
-1.695666
-1.710168
-1.724717
-1.739081
-1.753035
-1.766669
-1.779755
-1.792164
-1.803886
-1.814983
-1.825615
-1.836090
-1.846940
-1.861187
10.206598
10.206527
10.206325
10.206002
10.205572
10.205052
10.204456
10.203801
10.203100
10.202364
10.201603
10.200823
10.200031
10.199230
10.198423
10.197611
10.196795
10.195975
10.195148
10.194312
10.193463
10.192595
10.191702
10.190773
10.189799
10.188763
10.187651
10.186441
10.185112
10.183641
10.182006
10.180189
10.178187
10.176019
10.173744
10.171479
10.169403
10.167716
10.166536
10.165607
10.163337
10.155931
10.140561
10.137348
10.137348
0.000000
0.000000
0.000000
0.000000
0.000000
-5.939770
-5.939770
-6.136796
-6.619149
-6.802305
-6.448589
-5.729220
-4.902714
-4.161147
-3.599972
-3.231308
-3.015010
-2.889493
-2.794936
-2.688984
-2.557557
-2.409565
-2.258084
-2.105897
-1.961356
-1.841722
-1.767249
-1.746590
-1.777813
-1.853284
-1.963610
-2.100217
-2.253815
-2.413514
-2.569000
-2.709348
-2.824981
-2.911948
-2.970836
-3.004976
-3.016544
-3.011450
-2.995716
-2.974569
-2.951927
-2.930218
-2.910449
-2.892465
-2.875314
-2.857633
-2.837988
-2.815141
-2.788233
-2.756869
-2.721145
-2.681605
-2.639159
-2.594961
-2.550281
-2.506385
-2.464447
-2.425500
-2.390414
-2.359908
-2.334565
-2.314849
-2.301108
-2.293562
-2.292281
-2.297173
-2.307984
-2.324280
-2.345417
-2.370467
-2.398346
-2.427698
-2.456965
-2.484383
-2.507641
-2.524418
-2.532805
-2.531494
-2.519843
-2.497855
-2.466073
-2.425451
-2.377216
-2.322758
-2.263537
-2.201022
-2.136655
-2.071828
-2.007866
-1.946009
-1.887403
-1.833070
-1.783887
-1.740567
-1.703634
-1.673420
-1.650061
-1.633510
-1.623554
-1.619840
-1.621893
-1.629136
-1.640905
-1.656457
-1.674980
-1.695593
-1.717357
-1.739291
-1.760392
-1.779665
-1.796175
-1.809097
-1.817780
-1.821799
-1.820998
-1.815507
-1.805731
-1.792306
-1.776045
-1.757862
-1.738706
-1.719499
-1.701093
-1.684229
-1.669520
-1.657436
-1.648301
-1.642287
-1.639432
-1.639641
-1.642715
-1.648368
-1.656253
-1.665990
-1.677187
-1.689460
-1.702454
-1.715845
-1.729352
-1.742735
-1.755796
-1.768372
-1.780362
-1.791936
-1.802839
-1.813076
-1.822700
-1.831826
-1.840640
-1.849419
-1.859858
10.205305
10.205243
10.205065
10.204781
10.204398
10.203928
10.203385
10.202779
10.202123
10.201424
10.200692
10.199932
10.199150
10.198349
10.197532
10.196699
10.195851
10.194986
10.194103
10.193199
10.192268
10.191306
10.190305
10.189257
10.188153
10.186981
10.185733
10.184399
10.182979
10.181480
10.179934
10.178408
10.177036
10.176061
10.175901
10.177249
10.181210
10.189446
10.205047
10.231765
10.274704
10.338999
10.426584
10.528185
10.528185
0.000000
0.000000
0.000000
0.000000
0.000000
-6.027822
-6.027822
-6.328217
-6.922021
-7.429749
-7.070188
-6.286624
-5.323961
-4.394397
-3.623629
-3.052944
-2.668806
-2.431224
-2.294017
-2.213400
-2.153543
-2.096907
-2.034717
-1.958458
-1.872034
-1.794554
-1.744815
-1.735096
-1.769431
-1.845656
-1.958333
-2.100600
-2.263933
-2.437922
-2.609753
-2.764767
-2.892281
-2.986775
-3.046013
-3.076040
-3.081789
-3.068631
-3.044221
-3.014898
-2.985319
-2.958304
-2.934897
-2.914683
-2.896229
-2.877600
-2.856828
-2.832278
-2.802872
-2.768183
-2.728419
-2.684336
-2.637103
-2.588135
-2.538936
-2.490955
-2.445486
-2.403630
-2.366283
-2.334169
-2.307873
-2.287871
-2.274533
-2.268105
-2.268658
-2.276063
-2.290024
-2.310071
-2.335550
-2.365282
-2.398069
-2.432693
-2.467442
-2.500602
-2.529179
-2.550265
-2.561763
-2.562359
-2.551541
-2.529517
-2.497062
-2.455354
-2.405805
-2.349938
-2.289299
-2.225400
-2.159693
-2.093562
-2.028320
-1.965202
-1.905351
-1.849805
-1.799463
-1.755062
-1.717153
-1.686082
-1.661990
-1.644819
-1.634335
-1.630150
-1.631757
-1.638554
-1.649862
-1.664936
-1.682973
-1.703108
-1.724423
-1.745959
-1.766728
-1.785752
-1.802104
-1.814965
-1.823688
-1.827856
-1.827322
-1.822233
-1.813009
-1.800301
-1.784926
-1.767794
-1.749841
-1.731963
-1.714977
-1.699590
-1.686375
-1.675766
-1.668047
-1.663359
-1.661700
-1.662945
-1.666862
-1.673135
-1.681395
-1.691244
-1.702281
-1.714123
-1.726421
-1.738870
-1.751213
-1.763242
-1.774796
-1.785758
-1.796059
-1.805716
-1.814793
-1.823204
-1.830991
-1.838210
-1.844920
-1.851142
-1.857229
10.204129
10.204073
10.203914
10.203657
10.203309
10.202879
10.202376
10.201809
10.201187
10.200518
10.199808
10.199064
10.198288
10.197485
10.196656
10.195802
10.194922
10.194016
10.193080
10.192112
10.191105
10.190055
10.188955
10.187796
10.186572
10.185274
10.183897
10.182442
10.180920
10.179363
10.177838
10.176469
10.175485
10.175275
10.176497
10.180222
10.188153
10.202870
10.228174
10.269949
10.334521
10.425799
10.537931
10.642870
10.642869
0.000000
0.000000
0.000000
0.000000
0.000000
-5.823129
-5.823129
-6.179076
-6.754853
-7.242998
-7.070805
-6.400527
-5.457854
-4.492854
-3.648329
-2.978640
-2.492438
-2.172857
-1.990346
-1.901599
-1.853716
-1.837057
-1.832829
-1.809280
-1.772432
-1.738369
-1.720892
-1.731519
-1.776503
-1.857527
-1.972807
-2.117849
-2.285542
-2.465966
-2.646210
-2.812116
-2.950986
-3.052541
-3.113232
-3.137101
-3.140265
-3.120255
-3.088244
-3.051846
-3.016439
-2.985299
-2.959585
-2.938679
-2.920644
-2.902837
-2.882535
-2.857449
-2.826088
-2.787907
-2.743274
-2.693316
-2.639671
-2.584237
-2.528935
-2.475523
-2.425492
-2.380022
-2.339999
-2.306074
-2.278749
-2.258455
-2.245573
-2.240401
-2.243058
-2.253348
-2.270961
-2.295344
-2.324893
-2.359408
-2.397931
-2.438655
-2.479395
-2.517550
-2.551390
-2.576172
-2.589948
-2.591578
-2.580801
-2.558114
-2.524578
-2.481610
-2.430805
-2.373803
-2.312207
-2.247537
-2.181219
-2.114595
-2.048929
-1.985416
-1.925175
-1.869228
-1.818477
-1.773669
-1.735361
-1.703908
-1.679442
-1.661890
-1.650986
-1.646304
-1.647295
-1.653318
-1.663677
-1.677627
-1.694393
-1.713155
-1.733051
-1.753178
-1.772601
-1.790388
-1.805652
-1.817613
-1.825661
-1.829415
-1.828765
-1.823882
-1.815205
-1.803385
-1.789224
-1.773601
-1.757401
-1.741466
-1.726551
-1.713302
-1.702233
-1.693722
-1.688004
-1.685170
-1.685176
-1.687855
-1.692937
-1.700079
-1.708885
-1.718945
-1.729855
-1.741239
-1.752768
-1.764163
-1.775204
-1.785722
-1.795602
-1.804772
-1.813200
-1.820888
-1.827899
-1.834263
-1.839995
-1.845106
-1.849572
-1.853273
-1.855824
10.203057
10.203006
10.202861
10.202625
10.202303
10.201903
10.201430
10.200893
10.200298
10.199651
10.198959
10.198225
10.197454
10.196647
10.195805
10.194930
10.194021
10.193075
10.192089
10.191061
10.189984
10.188853
10.187661
10.186400
10.185062
10.183642
10.182136
10.180547
10.178893
10.177212
10.175582
10.174146
10.173159
10.173053
10.174551
10.178839
10.187805
10.204356
10.232720
10.278305
10.346687
10.440199
10.550125
10.647697
10.647697
0.000000
0.000000
0.000000
0.000000
0.000000
-5.410049
-5.410049
-5.741806
-6.200287
-6.619635
-6.609691
-6.037957
-5.276570
-4.449037
-3.701632
-3.076600
-2.596526
-2.259887
-2.048199
-1.917852
-1.833496
-1.769295
-1.704399
-1.661257
-1.644667
-1.650159
-1.673432
-1.715108
-1.779654
-1.870950
-1.990638
-2.137037
-2.304829
-2.485158
-2.666078
-2.834092
-2.976389
-3.083542
-3.151346
-3.179268
-3.172413
-3.153617
-3.118646
-3.078530
-3.039932
-3.006950
-2.981028
-2.961560
-2.946214
-2.931643
-2.914241
-2.890847
-2.859294
-2.818697
-2.769465
-2.713085
-2.651785
-2.588156
-2.524798
-2.464047
-2.407793
-2.357414
-2.313812
-2.277538
-2.248944
-2.228316
-2.215941
-2.212122
-2.217071
-2.230345
-2.251815
-2.279149
-2.313435
-2.353715
-2.398364
-2.445228
-2.491681
-2.534752
-2.572369
-2.599673
-2.614565
-2.616179
-2.604594
-2.580656
-2.545729
-2.501467
-2.449623
-2.391923
-2.329988
-2.265312
-2.199259
-2.133095
-2.068006
-2.005119
-1.945498
-1.890131
-1.839898
-1.795533
-1.757589
-1.726408
-1.702109
-1.684588
-1.673544