# vtk DataFile Version 3.0
Vector Field
ASCII
DATASET RECTILINEAR_GRID
DIMENSIONS 200 50 1
X_COORDINATES 200 double
0.050000 0.150000 0.250000 0.350000 0.450000 0.550000 0.650000 0.750000 0.850000 0.950000 1.050000 1.150000 1.250000 1.350000 1.450000 1.550000 1.650000 1.750000 1.850000 1.950000 2.050000 2.150000 2.250000 2.350000 2.450000 2.550000 2.650000 2.750000 2.850000 2.950000 3.050000 3.150000 3.250000 3.350000 3.450000 3.550000 3.650000 3.750000 3.850000 3.950000 4.050000 4.150000 4.250000 4.350000 4.450000 4.550000 4.650000 4.750000 4.850000 4.950000 5.050000 5.150000 5.250000 5.350000 5.450000 5.550000 5.650000 5.750000 5.850000 5.950000 6.050000 6.150000 6.250000 6.350000 6.450000 6.550000 6.650000 6.750000 6.850000 6.950000 7.050000 7.150000 7.250000 7.350000 7.450000 7.550000 7.650000 7.750000 7.850000 7.950000 8.050000 8.150000 8.250000 8.350000 8.450000 8.550000 8.650000 8.750000 8.850000 8.950000 9.050000 9.150000 9.250000 9.350000 9.450000 9.550000 9.650000 9.750000 9.850000 9.950000 10.050000 10.150000 10.250000 10.350000 10.450000 10.550000 10.650000 10.750000 10.850000 10.950000 11.050000 11.150000 11.250000 11.350000 11.450000 11.550000 11.650000 11.750000 11.850000 11.950000 12.050000 12.150000 12.250000 12.350000 12.450000 12.550000 12.650000 12.750000 12.850000 12.950000 13.050000 13.150000 13.250000 13.350000 13.450000 13.550000 13.650000 13.750000 13.850000 13.950000 14.050000 14.150000 14.250000 14.350000 14.450000 14.550000 14.650000 14.750000 14.850000 14.950000 15.050000 15.150000 15.250000 15.350000 15.450000 15.550000 15.650000 15.750000 15.850000 15.950000 16.050000 16.150000 16.250000 16.350000 16.450000 16.550000 16.650000 16.750000 16.850000 16.950000 17.050000 17.150000 17.250000 17.350000 17.450000 17.550000 17.650000 17.750000 17.850000 17.950000 18.050000 18.150000 18.250000 18.350000 18.450000 18.550000 18.650000 18.750000 18.850000 18.950000 19.050000 19.150000 19.250000 19.350000 19.450000 19.550000 19.650000 19.750000 19.850000 19.950000 
Y_COORDINATES 50 double
0.050000 0.150000 0.250000 0.350000 0.450000 0.550000 0.650000 0.750000 0.850000 0.950000 1.050000 1.150000 1.250000 1.350000 1.450000 1.550000 1.650000 1.750000 1.850000 1.950000 2.050000 2.150000 2.250000 2.350000 2.450000 2.550000 2.650000 2.750000 2.850000 2.950000 3.050000 3.150000 3.250000 3.350000 3.450000 3.550000 3.650000 3.750000 3.850000 3.950000 4.050000 4.150000 4.250000 4.350000 4.450000 4.550000 4.650000 4.750000 4.850000 4.950000 
Z_COORDINATES 1 double
0.0
POINT_DATA 10000
VECTORS Vektorfeld double
0.996425 0.003575 0.0
0.986666 0.006183 0.0
0.973199 0.007284 0.0
0.958100 0.007814 0.0
0.942193 0.008094 0.0
0.925846 0.008252 0.0
0.909249 0.008345 0.0
0.892506 0.008398 0.0
0.875681 0.008427 0.0
0.858814 0.008439 0.0
0.841935 0.008440 0.0
0.825065 0.008431 0.0
0.808218 0.008416 0.0
0.791407 0.008396 0.0
0.774638 0.008373 0.0
0.757915 0.008350 0.0
0.741236 0.008329 0.0
0.724594 0.008313 0.0
0.707978 0.008304 0.0
0.691368 0.008306 0.0
0.674740 0.008322 0.0
0.658061 0.008356 0.0
0.641293 0.008412 0.0
0.624385 0.008495 0.0
0.607280 0.008610 0.0
0.589903 0.008766 0.0
0.572165 0.008972 0.0
0.553949 0.009243 0.0
0.535108 0.009598 0.0
0.515447 0.010063 0.0
0.494710 0.010674 0.0
0.472556 0.011480 0.0
0.448527 0.012549 0.0
0.422010 0.013968 0.0
0.392189 0.015853 0.0
0.357986 0.018349 0.0
0.318018 0.021619 0.0
0.270584 0.025815 0.0
0.213770 0.031000 0.0
0.145776 0.036994 0.0
0.065455 0.043327 0.0
-0.022532 0.044660 0.0
-0.082992 0.015799 0.0
-0.049395 -0.049395 0.0
0.500000 0.049409 0.0
1.000000 0.000000 0.0
1.000000 0.000000 0.0
1.000000 0.000000 0.0
1.000000 0.000000 0.0
1.000000 0.000000 0.0
0.500000 0.021502 0.0
0.021522 -0.021522 0.0
0.056464 -0.013420 0.0
0.062922 0.006962 0.0
0.032954 0.023006 0.0
-0.018866 0.028815 0.0
-0.078986 0.031305 0.0
-0.145005 0.034714 0.0
-0.218726 0.039007 0.0
-0.301974 0.044241 0.0
-0.396622 0.050406 0.0
-0.504169 0.057141 0.0
-0.625149 0.063840 0.0
-0.758830 0.069841 0.0
-0.903196 0.074524 0.0
-1.055090 0.077370 0.0
-1.210473 0.078014 0.0
-1.364760 0.076273 0.0
-1.513186 0.072154 0.0
-1.651185 0.065844 0.0
-1.774707 0.057678 0.0
-1.880480 0.048095 0.0
-1.966152 0.037576 0.0
-2.030306 0.026578 0.0
-2.072342 0.015458 0.0
-2.092207 0.004406 0.0
-2.089904 -0.006709 0.0
-2.065785 -0.017409 0.0
-2.021036 -0.027340 0.0
-1.957293 -0.036402 0.0
-1.876389 -0.044501 0.0
-1.780350 -0.051538 0.0
-1.671387 -0.057426 0.0
-1.551855 -0.062106 0.0
-1.424196 -0.065553 0.0
-1.290867 -0.067777 0.0
-1.154254 -0.068836 0.0
-1.016568 -0.068851 0.0
-0.879748 -0.067969 0.0
-0.745516 -0.066264 0.0
-0.615569 -0.063683 0.0
-0.491348 -0.060538 0.0
-0.373832 -0.056978 0.0
-0.264077 -0.052777 0.0
-0.162663 -0.048636 0.0
-0.069311 -0.044716 0.0
0.017615 -0.042210 0.0
0.094952 -0.035128 0.0
0.159923 -0.029843 0.0
0.215399 -0.025633 0.0
0.263174 -0.022142 0.0
0.304528 -0.019212 0.0
0.340491 -0.016751 0.0
0.371925 -0.014683 0.0
0.399542 -0.012934 0.0
0.423903 -0.011427 0.0
0.445416 -0.010086 0.0
0.464341 -0.008839 0.0
0.480801 -0.007621 0.0
0.494804 -0.006381 0.0
0.506273 -0.005087 0.0
0.515100 -0.003739 0.0
0.521218 -0.002379 0.0
0.524703 -0.001105 0.0
0.525867 -0.000059 0.0
0.525074 0.000851 0.0
0.522438 0.001786 0.0
0.517844 0.002807 0.0
0.511154 0.003883 0.0
0.502342 0.004929 0.0
0.491544 0.005868 0.0
0.479059 0.006617 0.0
0.465339 0.007104 0.0
0.450938 0.007297 0.0
0.436421 0.007220 0.0
0.422238 0.006964 0.0
0.408604 0.006670 0.0
0.395444 0.006490 0.0
0.382421 0.006533 0.0
0.369064 0.006824 0.0
0.354943 0.007297 0.0
0.339810 0.007836 0.0
0.323653 0.008321 0.0
0.306658 0.008673 0.0
0.289127 0.008857 0.0
0.271407 0.008863 0.0
0.253861 0.008682 0.0
0.236885 0.008295 0.0
0.220910 0.007680 0.0
0.206400 0.006831 0.0
0.193792 0.005777 0.0
0.183424 0.004591 0.0
0.175453 0.003380 0.0
0.169810 0.002263 0.0
0.166211 0.001336 0.0
0.164231 0.000644 0.0
0.163442 0.000145 0.0
0.163479 -0.000182 0.0
0.164023 -0.000363 0.0
0.164873 -0.000487 0.0
0.165986 -0.000626 0.0
0.167437 -0.000825 0.0
0.169363 -0.001101 0.0
0.171908 -0.001444 0.0
0.175173 -0.001821 0.0
0.179203 -0.002208 0.0
0.184004 -0.002593 0.0
0.189559 -0.002963 0.0
0.195819 -0.003297 0.0
0.202692 -0.003576 0.0
0.210051 -0.003784 0.0
0.217751 -0.003915 0.0
0.225631 -0.003965 0.0
0.233531 -0.003935 0.0
0.241292 -0.003826 0.0
0.248761 -0.003643 0.0
0.255797 -0.003393 0.0
0.262274 -0.003084 0.0
0.268090 -0.002731 0.0
0.273172 -0.002350 0.0
0.277480 -0.001958 0.0
0.281009 -0.001571 0.0
0.283785 -0.001205 0.0
0.285862 -0.000872 0.0
0.287314 -0.000580 0.0
0.288228 -0.000334 0.0
0.288694 -0.000132 0.0
0.288781 0.000045 0.0
0.288508 0.000229 0.0
0.287885 0.000394 0.0
0.286963 0.000529 0.0
0.285799 0.000635 0.0
0.284445 0.000718 0.0
0.282944 0.000782 0.0
0.281332 0.000831 0.0
0.279634 0.000867 0.0
0.277874 0.000893 0.0
0.276072 0.000909 0.0
0.274245 0.000918 0.0
0.272410 0.000918 0.0
0.270582 0.000910 0.0
0.268778 0.000894 0.0
0.267017 0.000867 0.0
0.265321 0.000829 0.0
0.263716 0.000776 0.0
0.262237 0.000703 0.0
0.260930 0.000603 0.0
0.259862 0.000465 0.0
0.259105 0.000291 0.0
0.259044 -0.000230 0.0
1.001720 0.005430 0.0
1.005224 0.010583 0.0
1.008272 0.013304 0.0
1.010265 0.014900 0.0
1.011252 0.015929 0.0
1.011367 0.016649 0.0
1.010726 0.017187 0.0
1.009413 0.017611 0.0
1.007493 0.017959 0.0
1.005016 0.018251 0.0
1.002021 0.018502 0.0
0.998540 0.018720 0.0
0.994601 0.018912 0.0
0.990226 0.019085 0.0
0.985434 0.019245 0.0
0.980237 0.019398 0.0
0.974643 0.019553 0.0
0.968655 0.019718 0.0
0.962268 0.019902 0.0
0.955472 0.020114 0.0
0.948248 0.020366 0.0
0.940572 0.020668 0.0
0.932409 0.021033 0.0
0.923715 0.021476 0.0
0.914435 0.022015 0.0
0.904498 0.022675 0.0
0.893813 0.023487 0.0
0.882264 0.024493 0.0
0.869701 0.025753 0.0
0.855922 0.027348 0.0
0.840661 0.029387 0.0
0.823561 0.032022 0.0
0.804138 0.035460 0.0
0.781732 0.039979 0.0
0.755449 0.045946 0.0
0.724079 0.053830 0.0
0.686003 0.064183 0.0
0.639116 0.077572 0.0
0.580819 0.094354 0.0
0.508326 0.114126 0.0
0.420267 0.134574 0.0
0.318352 0.143315 0.0
0.196560 0.099396 0.0
0.064381 -0.034410 0.0
0.500000 0.034470 0.0
1.000000 0.000000 0.0
1.000000 0.000000 0.0
1.000000 0.000000 0.0
1.000000 0.000000 0.0
1.000000 0.000000 0.0
0.500000 0.040751 0.0
-0.002148 -0.040895 0.0
-0.025675 -0.005462 0.0
-0.073986 0.040856 0.0
-0.131802 0.076895 0.0
-0.198401 0.093346 0.0
-0.273117 0.101611 0.0
-0.352790 0.110101 0.0
-0.435923 0.120474 0.0
-0.523628 0.133729 0.0
-0.618157 0.150096 0.0
-0.721654 0.168494 0.0
-0.835275 0.187088 0.0
-0.958918 0.203917 0.0
-1.091215 0.217112 0.0
-1.229592 0.225053 0.0
-1.370425 0.226547 0.0
-1.509347 0.220948 0.0
-1.641648 0.208207 0.0
-1.762707 0.188850 0.0
-1.868398 0.163886 0.0
-1.955407 0.134669 0.0
-2.021430 0.102696 0.0
-2.065209 0.069391 0.0
-2.086426 0.035899 0.0
-2.085525 0.002929 0.0
-2.063702 -0.029359 0.0
-2.022804 -0.059776 0.0
-1.964403 -0.088123 0.0
-1.889621 -0.114144 0.0
-1.799787 -0.137496 0.0
-1.696556 -0.157814 0.0
-1.581884 -0.174785 0.0
-1.457955 -0.188206 0.0
-1.327083 -0.197983 0.0
-1.191625 -0.204134 0.0
-1.053898 -0.206818 0.0
-0.916050 -0.206403 0.0
-0.779901 -0.203383 0.0
-0.646954 -0.198028 0.0
-0.518804 -0.190015 0.0
-0.396613 -0.180617 0.0
-0.280722 -0.170306 0.0
-0.171852 -0.158074 0.0
-0.069683 -0.146923 0.0
0.025867 -0.135332 0.0
0.109672 -0.122324 0.0
0.182523 -0.105202 0.0
0.248909 -0.091126 0.0
0.308450 -0.079366 0.0
0.361702 -0.069436 0.0
0.409484 -0.061054 0.0
0.452625 -0.054012 0.0
0.491879 -0.048110 0.0
0.527894 -0.043139 0.0
0.561200 -0.038888 0.0
0.592209 -0.035146 0.0
0.621220 -0.031716 0.0
0.648442 -0.028426 0.0
0.674005 -0.025142 0.0
0.697986 -0.021776 0.0
0.720409 -0.018300 0.0
0.741230 -0.014758 0.0
0.760268 -0.011250 0.0
0.777081 -0.007890 0.0
0.791130 -0.004575 0.0
0.802163 -0.001183 0.0
0.810276 0.002257 0.0
0.815710 0.005691 0.0
0.818564 0.009079 0.0
0.818795 0.012286 0.0
0.816324 0.015155 0.0
0.811029 0.017581 0.0
0.802701 0.019549 0.0
0.791040 0.021146 0.0
0.775710 0.022551 0.0
0.756458 0.023969 0.0
0.733262 0.025547 0.0
0.706463 0.027299 0.0
0.676801 0.029077 0.0
0.645333 0.030633 0.0
0.613245 0.031721 0.0
0.581638 0.032200 0.0
0.551354 0.032074 0.0
0.522898 0.031444 0.0
0.496482 0.030414 0.0
0.472147 0.029012 0.0
0.449921 0.027167 0.0
0.429942 0.024761 0.0
0.412484 0.021719 0.0
0.397894 0.018087 0.0
0.386471 0.014072 0.0
0.378332 0.010008 0.0
0.373340 0.006269 0.0
0.371105 0.003164 0.0
0.371031 0.000870 0.0
0.372346 -0.000607 0.0
0.374342 -0.001462 0.0
0.376645 -0.001931 0.0
0.379168 -0.002293 0.0
0.382003 -0.002768 0.0
0.385353 -0.003484 0.0
0.389494 -0.004508 0.0
0.394712 -0.005801 0.0
0.401218 -0.007236 0.0
0.409127 -0.008730 0.0
0.418513 -0.010258 0.0
0.429439 -0.011780 0.0
0.441924 -0.013225 0.0
0.455916 -0.014512 0.0
0.471289 -0.015581 0.0
0.487861 -0.016390 0.0
0.505404 -0.016913 0.0
0.523645 -0.017128 0.0
0.542273 -0.017021 0.0
0.560936 -0.016582 0.0
0.579256 -0.015810 0.0
0.596838 -0.014726 0.0
0.613303 -0.013370 0.0
0.628314 -0.011804 0.0
0.641606 -0.010105 0.0
0.653012 -0.008359 0.0
0.662469 -0.006650 0.0
0.670016 -0.005051 0.0
0.675779 -0.003616 0.0
0.679941 -0.002374 0.0
0.682717 -0.001335 0.0
0.684364 -0.000486 0.0
0.685198 0.000199 0.0
0.685501 0.000744 0.0
0.685429 0.001173 0.0
0.685083 0.001501 0.0
0.684547 0.001743 0.0
0.683884 0.001921 0.0
0.683141 0.002048 0.0
0.682352 0.002136 0.0
0.681539 0.002195 0.0
0.680718 0.002230 0.0
0.679898 0.002244 0.0
0.679087 0.002239 0.0
0.678291 0.002214 0.0
0.677516 0.002168 0.0
0.676771 0.002098 0.0
0.676069 0.001996 0.0
0.675429 0.001853 0.0
0.674880 0.001654 0.0
0.674465 0.001375 0.0
0.674249 0.000978 0.0
0.674379 0.000405 0.0
0.674879 -0.000784 0.0
1.000674 0.003036 0.0
1.002553 0.007595 0.0
1.005040 0.010756 0.0
1.007511 0.012983 0.0
1.009745 0.014625 0.0
1.011683 0.015900 0.0
1.013319 0.016941 0.0
1.014664 0.017825 0.0
1.015729 0.018599 0.0
1.016525 0.019292 0.0
1.017058 0.019923 0.0
1.017335 0.020503 0.0
1.017357 0.021045 0.0
1.017127 0.021556 0.0
1.016645 0.022048 0.0
1.015909 0.022529 0.0
1.014912 0.023012 0.0
1.013649 0.023510 0.0
1.012108 0.024037 0.0
1.010274 0.024609 0.0
1.008127 0.025241 0.0
1.005643 0.025952 0.0
1.002791 0.026763 0.0
0.999533 0.027696 0.0
0.995826 0.028782 0.0
0.991614 0.030057 0.0
0.986832 0.031572 0.0
0.981397 0.033392 0.0
0.975206 0.035609 0.0
0.968127 0.038349 0.0
0.959989 0.041784 0.0
0.950559 0.046154 0.0
0.939522 0.051788 0.0
0.926436 0.059143 0.0
0.910666 0.068835 0.0
0.891289 0.081689 0.0
0.866931 0.098758 0.0
0.835522 0.121292 0.0
0.793932 0.150520 0.0
0.737438 0.186946 0.0
0.658964 0.228288 0.0
0.547034 0.263447 0.0
0.383061 0.265029 0.0
0.142613 0.172584 0.0
0.500000 -0.172464 0.0
1.000000 0.000000 0.0
1.000000 0.000000 0.0
1.000000 0.000000 0.0
1.000000 0.000000 0.0
1.000000 0.000000 0.0
0.500000 0.010178 0.0
-0.028288 -0.010459 0.0
-0.084674 0.044015 0.0
-0.143896 0.098912 0.0
-0.209101 0.141860 0.0
-0.280120 0.165998 0.0
-0.355623 0.179178 0.0
-0.432969 0.189553 0.0
-0.510441 0.201626 0.0
-0.588710 0.218551 0.0
-0.670384 0.241476 0.0
-0.758177 0.268403 0.0
-0.853479 0.296105 0.0
-0.956443 0.321507 0.0
-1.066244 0.341620 0.0
-1.180983 0.353661 0.0
-1.297666 0.355456 0.0
-1.412452 0.345747 0.0
-1.521067 0.324323 0.0
-1.619282 0.292008 0.0
-1.703376 0.250513 0.0
-1.770507 0.202183 0.0
-1.818935 0.149634 0.0
-1.848043 0.095340 0.0
-1.858146 0.041269 0.0
-1.850178 -0.011310 0.0
-1.825452 -0.061669 0.0
-1.784567 -0.109249 0.0
-1.727488 -0.154130 0.0
-1.654637 -0.195770 0.0
-1.566945 -0.233395 0.0
-1.465881 -0.266212 0.0
-1.353360 -0.293580 0.0
-1.231604 -0.315096 0.0
-1.102989 -0.330581 0.0
-0.969960 -0.340024 0.0
-0.835006 -0.343609 0.0
-0.700597 -0.341869 0.0
-0.568933 -0.335730 0.0
-0.441839 -0.325723 0.0
-0.321242 -0.311068 0.0
-0.208370 -0.294626 0.0
-0.103483 -0.277076 0.0
-0.006381 -0.257275 0.0
0.080845 -0.237115 0.0
0.156079 -0.215923 0.0
0.222511 -0.191971 0.0
0.283377 -0.169272 0.0
0.339007 -0.149072 0.0
0.389568 -0.131521 0.0
0.435527 -0.116493 0.0
0.477542 -0.103795 0.0
0.516316 -0.093186 0.0
0.552510 -0.084384 0.0
0.586696 -0.077066 0.0
0.619322 -0.070893 0.0
0.650697 -0.065525 0.0
0.680993 -0.060644 0.0
0.710249 -0.055975 0.0
0.738392 -0.051301 0.0
0.765269 -0.046475 0.0
0.790675 -0.041429 0.0
0.814385 -0.036160 0.0
0.836198 -0.030700 0.0
0.855997 -0.025051 0.0
0.873776 -0.019244 0.0
0.889586 -0.013357 0.0
0.903400 -0.007498 0.0
0.915152 -0.001741 0.0
0.924938 0.003870 0.0
0.932876 0.009327 0.0
0.938838 0.014622 0.0
0.942510 0.019737 0.0
0.943499 0.024732 0.0
0.941388 0.029734 0.0
0.935803 0.034876 0.0
0.926483 0.040216 0.0
0.913320 0.045659 0.0
0.896374 0.050932 0.0
0.875850 0.055629 0.0
0.852065 0.059335 0.0
0.825415 0.061756 0.0
0.796372 0.062815 0.0
0.765480 0.062634 0.0
0.733374 0.061445 0.0
0.700767 0.059436 0.0
0.668448 0.056646 0.0
0.637255 0.052951 0.0
0.608063 0.048147 0.0
0.581742 0.042112 0.0
0.559073 0.034952 0.0
0.540625 0.027079 0.0
0.526612 0.019154 0.0
0.516804 0.011923 0.0
0.510544 0.006004 0.0
0.506931 0.001717 0.0
0.505114 -0.000952 0.0
0.504340 -0.002338 0.0
0.504026 -0.003044 0.0
0.503949 -0.003626 0.0
0.504145 -0.004464 0.0
0.504766 -0.005760 0.0
0.506056 -0.007664 0.0
0.508325 -0.010132 0.0
0.511774 -0.012860 0.0
0.516464 -0.015705 0.0
0.522495 -0.018700 0.0
0.530046 -0.021816 0.0
0.539276 -0.024903 0.0
0.550252 -0.027800 0.0
0.562970 -0.030384 0.0
0.577377 -0.032567 0.0
0.593381 -0.034283 0.0
0.610852 -0.035471 0.0
0.629609 -0.036064 0.0
0.649405 -0.035999 0.0
0.669924 -0.035230 0.0
0.690777 -0.033742 0.0
0.711527 -0.031569 0.0
0.731704 -0.028793 0.0
0.750845 -0.025550 0.0
0.768532 -0.022007 0.0
0.784421 -0.018349 0.0
0.798274 -0.014754 0.0
0.809975 -0.011376 0.0
0.819524 -0.008325 0.0
0.827034 -0.005671 0.0
0.832687 -0.003451 0.0
0.836697 -0.001681 0.0
0.839331 -0.000312 0.0
0.840915 0.000718 0.0
0.841741 0.001475 0.0
0.842035 0.002012 0.0
0.841971 0.002379 0.0
0.841688 0.002615 0.0
0.841292 0.002753 0.0
0.840864 0.002819 0.0
0.840459 0.002832 0.0
0.840116 0.002804 0.0
0.839859 0.002746 0.0
0.839702 0.002660 0.0
0.839653 0.002548 0.0
0.839711 0.002405 0.0
0.839879 0.002224 0.0
0.840156 0.001989 0.0
0.840543 0.001679 0.0
0.841046 0.001262 0.0
0.841669 0.000684 0.0
0.842387 -0.000148 0.0
0.843060 -0.001405 0.0
1.000311 0.002050 0.0
1.001338 0.005675 0.0
1.002945 0.008583 0.0
1.004763 0.010867 0.0
1.006585 0.012685 0.0
1.008312 0.014176 0.0
1.009901 0.015440 0.0
1.011338 0.016544 0.0
1.012620 0.017533 0.0
1.013749 0.018434 0.0
1.014729 0.019267 0.0
1.015565 0.020047 0.0
1.016259 0.020784 0.0
1.016815 0.021491 0.0
1.017233 0.022177 0.0
1.017514 0.022856 0.0
1.017655 0.023541 0.0
1.017652 0.024248 0.0
1.017499 0.024994 0.0
1.017186 0.025799 0.0
1.016701 0.026683 0.0
1.016028 0.027668 0.0
1.015149 0.028779 0.0
1.014040 0.030046 0.0
1.012677 0.031503 0.0
1.011030 0.033195 0.0
1.009067 0.035180 0.0
1.006752 0.037534 0.0
1.004045 0.040364 0.0
1.000904 0.043814 0.0
0.997278 0.048084 0.0
0.993105 0.053456 0.0
0.988304 0.060324 0.0
0.982753 0.069245 0.0
0.976245 0.081010 0.0
0.968404 0.096731 0.0
0.958507 0.117971 0.0
0.945118 0.146877 0.0
0.925356 0.186287 0.0
0.893412 0.239616 0.0
0.837559 0.309945 0.0
0.734496 0.396782 0.0
0.542187 0.487976 0.0
0.208538 0.523735 0.0
0.500000 -0.523537 0.0
1.000000 0.000000 0.0
1.000000 0.000000 0.0
1.000000 0.000000 0.0
1.000000 0.000000 0.0
1.000000 0.000000 0.0
0.500000 -0.048980 0.0
-0.030850 0.048679 0.0
-0.091956 0.102369 0.0
-0.154123 0.161947 0.0
-0.220224 0.210131 0.0
-0.290157 0.238679 0.0
-0.361656 0.253499 0.0
-0.431451 0.262374 0.0
-0.496986 0.271811 0.0
-0.558798 0.288447 0.0
-0.621306 0.315763 0.0
-0.688828 0.349430 0.0
-0.762562 0.384115 0.0
-0.842488 0.416386 0.0
-0.928519 0.442573 0.0
-1.019761 0.458689 0.0
-1.114074 0.461423 0.0
-1.208266 0.448757 0.0
-1.298532 0.420194 0.0
-1.380959 0.376781 0.0
-1.452046 0.320921 0.0
-1.509140 0.256000 0.0
-1.550718 0.185822 0.0
-1.576374 0.113917 0.0
-1.586508 0.042928 0.0
-1.581804 -0.025640 0.0
-1.562641 -0.091227 0.0
-1.528328 -0.154889 0.0
-1.477843 -0.216054 0.0
-1.411004 -0.273536 0.0
-1.328452 -0.325873 0.0
-1.231575 -0.371676 0.0
-1.122320 -0.409892 0.0
-1.002947 -0.439913 0.0
-0.875798 -0.461528 0.0
-0.743161 -0.474743 0.0
-0.607362 -0.479643 0.0
-0.470950 -0.476655 0.0
-0.336517 -0.467041 0.0
-0.207122 -0.450900 0.0
-0.085297 -0.428314 0.0
0.026845 -0.402395 0.0
0.125304 -0.372654 0.0
0.208191 -0.341686 0.0
0.277670 -0.309410 0.0
0.336336 -0.277528 0.0
0.386504 -0.246966 0.0
0.430192 -0.218830 0.0
0.468832 -0.193785 0.0
0.503498 -0.172035 0.0
0.535093 -0.153534 0.0
0.564416 -0.138091 0.0
0.592177 -0.125424 0.0
0.619000 -0.115164 0.0
0.645411 -0.106883 0.0
0.671823 -0.100115 0.0
0.698524 -0.094381 0.0
0.725662 -0.089222 0.0
0.753236 -0.084227 0.0
0.781096 -0.079052 0.0
0.808943 -0.073448 0.0
0.836349 -0.067268 0.0
0.862791 -0.060474 0.0
0.887710 -0.053119 0.0
0.910600 -0.045319 0.0
0.931084 -0.037240 0.0
0.948981 -0.029067 0.0
0.964328 -0.020949 0.0
0.977330 -0.013043 0.0
0.988207 -0.005491 0.0
0.997244 0.001713 0.0
1.004806 0.008711 0.0
1.011096 0.015686 0.0
1.016084 0.022806 0.0
1.019605 0.030250 0.0
1.021412 0.038138 0.0
1.021224 0.046463 0.0
1.018759 0.055039 0.0
1.013758 0.063499 0.0
1.005990 0.071354 0.0
0.995275 0.078111 0.0
0.981521 0.083384 0.0
0.964782 0.086970 0.0
0.945312 0.088840 0.0
0.923603 0.089056 0.0
0.900371 0.087663 0.0
0.876501 0.084609 0.0
0.852941 0.079741 0.0
0.830578 0.072912 0.0
0.810101 0.064145 0.0
0.791894 0.053794 0.0
0.775984 0.042596 0.0
0.762066 0.031568 0.0
0.749621 0.021763 0.0
0.738058 0.013986 0.0
0.726832 0.008574 0.0
0.715495 0.005345 0.0
0.703866 0.003768 0.0
0.692023 0.003006 0.0
0.680209 0.002215 0.0
0.669010 0.000698 0.0
0.659445 -0.001978 0.0
0.652362 -0.005652 0.0
0.647593 -0.009644 0.0
0.644370 -0.013572 0.0
0.642185 -0.017498 0.0
0.641014 -0.021766 0.0
0.641148 -0.026436 0.0
0.642846 -0.031211 0.0
0.646223 -0.035845 0.0
0.651338 -0.040173 0.0
0.658237 -0.044083 0.0
0.666954 -0.047487 0.0
0.677499 -0.050283 0.0
0.689835 -0.052344 0.0
0.703850 -0.053530 0.0
0.719339 -0.053707 0.0
0.736000 -0.052781 0.0
0.753442 -0.050721 0.0
0.771203 -0.047578 0.0
0.788782 -0.043486 0.0
0.805679 -0.038654 0.0
0.821435 -0.033345 0.0
0.835666 -0.027843 0.0
0.848103 -0.022423 0.0
0.858598 -0.017321 0.0
0.867128 -0.012714 0.0
0.873783 -0.008715 0.0
0.878734 -0.005379 0.0
0.882199 -0.002714 0.0
0.884409 -0.000674 0.0
0.885622 0.000828 0.0
0.886097 0.001890 0.0
0.886064 0.002598 0.0
0.885714 0.003029 0.0
0.885200 0.003249 0.0
0.884639 0.003313 0.0
0.884117 0.003265 0.0
0.883695 0.003137 0.0
0.883412 0.002954 0.0
0.883288 0.002732 0.0
0.883333 0.002480 0.0
0.883545 0.002201 0.0
0.883918 0.001888 0.0
0.884436 0.001530 0.0
0.885080 0.001107 0.0
0.885825 0.000587 0.0
0.886627 -0.000067 0.0
0.887410 -0.000897 0.0
0.888055 -0.001974 0.0
1.000176 0.001562 0.0
1.000810 0.004501 0.0
1.001896 0.007065 0.0
1.003228 0.009234 0.0
1.004654 0.011069 0.0
1.006077 0.012643 0.0
1.007439 0.014021 0.0
1.008712 0.015253 0.0
1.009880 0.016374 0.0
1.010937 0.017406 0.0
1.011884 0.018368 0.0
1.012721 0.019273 0.0
1.013452 0.020133 0.0
1.014080 0.020958 0.0
1.014609 0.021762 0.0
1.015041 0.022558 0.0
1.015377 0.023361 0.0
1.015618 0.024190 0.0
1.015761 0.025062 0.0
1.015805 0.026001 0.0
1.015742 0.027028 0.0
1.015567 0.028170 0.0
1.015271 0.029452 0.0
1.014845 0.030907 0.0
1.014282 0.032569 0.0
1.013575 0.034483 0.0
1.012723 0.036707 0.0
1.011729 0.039315 0.0
1.010610 0.042407 0.0
1.009400 0.046121 0.0
1.008158 0.050646 0.0
1.006977 0.056248 0.0
1.006002 0.063308 0.0
1.005440 0.072376 0.0
1.005565 0.084262 0.0
1.006706 0.100178 0.0
1.009155 0.121972 0.0
1.012909 0.152512 0.0
1.016986 0.196339 0.0
1.017709 0.260785 0.0
1.004494 0.357844 0.0
0.949493 0.506947 0.0
0.782786 0.736829 0.0
0.329523 1.061796 0.0
0.500000 -1.061455 0.0
1.000000 0.000000 0.0
1.000000 0.000000 0.0
1.000000 0.000000 0.0
1.000000 0.000000 0.0
1.000000 0.000000 0.0
0.500000 -0.104215 0.0
-0.024432 0.103961 0.0
-0.072508 0.156269 0.0
-0.124914 0.222621 0.0
-0.185662 0.276306 0.0
-0.251040 0.307816 0.0
-0.316933 0.321755 0.0
-0.378012 0.324991 0.0
-0.428360 0.325076 0.0
-0.467342 0.335976 0.0
-0.505215 0.368616 0.0
-0.550772 0.409655 0.0
-0.602561 0.449413 0.0
-0.658837 0.487290 0.0
-0.720980 0.519843 0.0
-0.789745 0.541427 0.0
-0.864013 0.547266 0.0
-0.941288 0.534381 0.0
-1.018252 0.501800 0.0
-1.091264 0.450615 0.0
-1.156890 0.383799 0.0
-1.212404 0.305730 0.0
-1.256134 0.221399 0.0
-1.287437 0.135300 0.0
-1.306158 0.050400 0.0
-1.311907 -0.032068 0.0
-1.303755 -0.112114 0.0
-1.280141 -0.191929 0.0
-1.239609 -0.270033 0.0
-1.181734 -0.344272 0.0
-1.107139 -0.412283 0.0
-1.017314 -0.471968 0.0
-0.914341 -0.521829 0.0
-0.800561 -0.561127 0.0
-0.678232 -0.589792 0.0
-0.549221 -0.608129 0.0
-0.415115 -0.616162 0.0
-0.277583 -0.614079 0.0
-0.138692 -0.602942 0.0
-0.001786 -0.581300 0.0
0.127698 -0.549223 0.0
0.245054 -0.510984 0.0
0.348577 -0.466048 0.0
0.436505 -0.419106 0.0
0.507179 -0.372143 0.0
0.561159 -0.327442 0.0
0.600621 -0.286683 0.0
0.628724 -0.250904 0.0
0.648810 -0.220436 0.0
0.663848 -0.195088 0.0
0.676175 -0.174404 0.0
0.687475 -0.157844 0.0
0.698893 -0.144850 0.0
0.711185 -0.134852 0.0
0.724847 -0.127267 0.0
0.740197 -0.121494 0.0
0.757425 -0.116931 0.0
0.776611 -0.112996 0.0
0.797728 -0.109145 0.0
0.820633 -0.104899 0.0
0.845053 -0.099868 0.0
0.870577 -0.093777 0.0
0.896654 -0.086484 0.0
0.922615 -0.077989 0.0
0.947714 -0.068438 0.0
0.971211 -0.058103 0.0
0.992454 -0.047343 0.0
1.010978 -0.036543 0.0
1.026580 -0.026052 0.0
1.039333 -0.016113 0.0
1.049510 -0.006877 0.0
1.057551 0.001699 0.0
1.064063 0.009896 0.0
1.069620 0.018052 0.0
1.074614 0.026489 0.0
1.079256 0.035449 0.0
1.083572 0.045025 0.0
1.087409 0.055105 0.0
1.090472 0.065371 0.0
1.092368 0.075354 0.0
1.092666 0.084527 0.0
1.090981 0.092406 0.0
1.087059 0.098610 0.0
1.080849 0.102880 0.0
1.072539 0.105034 0.0
1.062544 0.104911 0.0
1.051439 0.102336 0.0
1.039856 0.097157 0.0
1.028366 0.089349 0.0
1.017396 0.079156 0.0
1.007190 0.067196 0.0
0.997838 0.054457 0.0
0.989322 0.042140 0.0
0.981558 0.031399 0.0
0.974398 0.023072 0.0
0.967605 0.017507 0.0
0.960850 0.014504 0.0
0.953714 0.013374 0.0
0.945732 0.013225 0.0
0.936424 0.013118 0.0
0.925152 0.012264 0.0
0.910927 0.010247 0.0
0.892862 0.007271 0.0
0.871385 0.003677 0.0
0.848512 -0.000798 0.0
0.827007 -0.006583 0.0
0.808959 -0.013463 0.0
0.794731 -0.020645 0.0
0.783650 -0.027619 0.0
0.775119 -0.034284 0.0
0.768869 -0.040600 0.0
0.764836 -0.046521 0.0
0.763048 -0.051979 0.0
0.763561 -0.056850 0.0
0.766395 -0.060948 0.0
0.771498 -0.064044 0.0
0.778723 -0.065907 0.0
0.787825 -0.066343 0.0
0.798461 -0.065237 0.0
0.810212 -0.062574 0.0
0.822597 -0.058454 0.0
0.835105 -0.053091 0.0
0.847232 -0.046790 0.0
0.858518 -0.039917 0.0
0.868588 -0.032857 0.0
0.877182 -0.025976 0.0
0.884169 -0.019576 0.0
0.889541 -0.013881 0.0
0.893399 -0.009022 0.0
0.895914 -0.005050 0.0
0.897305 -0.001940 0.0
0.897805 0.000381 0.0
0.897645 0.002022 0.0
0.897044 0.003101 0.0
0.896188 0.003731 0.0
0.895233 0.004016 0.0
0.894296 0.004044 0.0
0.893463 0.003888 0.0
0.892791 0.003607 0.0
0.892314 0.003244 0.0
0.892049 0.002831 0.0
0.891996 0.002390 0.0
0.892144 0.001930 0.0
0.892477 0.001454 0.0
0.892967 0.000956 0.0
0.893584 0.000420 0.0
0.894286 -0.000173 0.0
0.895022 -0.000845 0.0
0.895732 -0.001611 0.0
0.896338 -0.002511 0.0
1.000114 0.001272 0.0
1.000544 0.003728 0.0
1.001319 0.005977 0.0
1.002324 0.007985 0.0
1.003452 0.009764 0.0
1.004624 0.011353 0.0
1.005784 0.012788 0.0
1.006896 0.014101 0.0
1.007939 0.015315 0.0
1.008900 0.016446 0.0
1.009774 0.017508 0.0
1.010560 0.018511 0.0
1.011258 0.019466 0.0
1.011871 0.020384 0.0
1.012401 0.021277 0.0
1.012852 0.022160 0.0
1.013227 0.023049 0.0
1.013526 0.023962 0.0
1.013752 0.024921 0.0
1.013902 0.025948 0.0
1.013977 0.027069 0.0
1.013974 0.028308 0.0
1.013891 0.029693 0.0
1.013730 0.031253 0.0
1.013492 0.033023 0.0
1.013187 0.035041 0.0
1.012833 0.037356 0.0
1.012462 0.040031 0.0
1.012128 0.043144 0.0
1.011919 0.046804 0.0
1.011968 0.051155 0.0
1.012487 0.056400 0.0
1.013791 0.062826 0.0
1.016355 0.070855 0.0
1.020885 0.081127 0.0
1.028409 0.094648 0.0
1.040401 0.113063 0.0
1.058890 0.139177 0.0
1.086495 0.177992 0.0
1.126040 0.238862 0.0
1.178807 0.340215 0.0
1.237316 0.521068 0.0
1.267780 0.858950 0.0
0.634700 1.774625 0.0
-1.824004 -0.695442 0.0
-3.616504 0.000000 0.0
-3.573636 0.000000 0.0
-3.549980 0.000000 0.0
-3.514702 0.000000 0.0
-3.443606 0.000000 0.0
-1.697748 -0.064307 0.0
-0.019515 0.135991 0.0
-0.067659 0.208542 0.0
-0.124869 0.279964 0.0
-0.179383 0.334226 0.0
-0.230136 0.366026 0.0
-0.278370 0.377671 0.0
-0.320271 0.372054 0.0
-0.342972 0.351062 0.0
-0.339491 0.345490 0.0
-0.339653 0.397138 0.0
-0.365335 0.452371 0.0
-0.398769 0.491920 0.0
-0.430889 0.533179 0.0
-0.468303 0.573510 0.0
-0.514855 0.603076 0.0
-0.570147 0.615176 0.0
-0.632305 0.605903 0.0
-0.698728 0.573665 0.0
-0.766317 0.519350 0.0
-0.831810 0.446183 0.0
-0.892103 0.359153 0.0
-0.944558 0.264162 0.0
-0.987202 0.166483 0.0
-1.018407 0.069142 0.0
-1.036519 -0.026949 0.0
-1.040353 -0.121550 0.0
-1.028367 -0.218093 0.0
-0.998874 -0.313894 0.0
-0.951531 -0.405628 0.0
-0.887101 -0.489952 0.0
-0.807216 -0.564010 0.0
-0.714103 -0.625874 0.0
-0.610222 -0.674742 0.0
-0.497886 -0.710841 0.0
-0.378752 -0.735225 0.0
-0.253569 -0.748355 0.0
-0.122648 -0.750340 0.0
0.011709 -0.739929 0.0
0.145949 -0.715458 0.0
0.278658 -0.677257 0.0
0.407116 -0.628763 0.0
0.526370 -0.571045 0.0
0.631800 -0.507465 0.0
0.719203 -0.441861 0.0
0.785840 -0.378340 0.0
0.831116 -0.320522 0.0
0.856861 -0.270912 0.0
0.866910 -0.230564 0.0
0.866129 -0.199217 0.0
0.859297 -0.175770 0.0
0.850324 -0.158805 0.0
0.841963 -0.146946 0.0
0.835907 -0.138993 0.0
0.833056 -0.133937 0.0
0.833792 -0.130909 0.0
0.838192 -0.129144 0.0
0.846166 -0.127943 0.0
0.857525 -0.126674 0.0
0.872015 -0.124764 0.0
0.889307 -0.121715 0.0
0.908987 -0.117133 0.0
0.930536 -0.110754 0.0
0.953334 -0.102476 0.0
0.976664 -0.092380 0.0
0.999744 -0.080737 0.0
1.021775 -0.067982 0.0
1.042015 -0.054668 0.0
1.059869 -0.041383 0.0
1.074984 -0.028650 0.0
1.087304 -0.016837 0.0
1.097048 -0.006127 0.0
1.104704 0.003553 0.0
1.110987 0.012555 0.0
1.116660 0.021319 0.0
1.122366 0.030270 0.0
1.128542 0.039713 0.0
1.135374 0.049749 0.0
1.142792 0.060245 0.0
1.150511 0.070865 0.0
1.158100 0.081130 0.0
1.165077 0.090511 0.0
1.171009 0.098495 0.0
1.175589 0.104626 0.0
1.178681 0.108507 0.0
1.180316 0.109798 0.0
1.180644 0.108224 0.0
1.179864 0.103632 0.0
1.178151 0.096077 0.0
1.175620 0.085929 0.0
1.172333 0.073915 0.0
1.168343 0.061080 0.0
1.163739 0.048638 0.0
1.158651 0.037753 0.0
1.153216 0.029314 0.0
1.147502 0.023773 0.0
1.141434 0.021061 0.0
1.134750 0.020638 0.0
1.127016 0.021678 0.0
1.117705 0.023285 0.0
1.106332 0.024741 0.0
1.092685 0.025642 0.0
1.076974 0.025652 0.0
1.059576 0.024172 0.0
1.040535 0.020621 0.0
1.019248 0.014791 0.0
0.995230 0.007230 0.0
0.969443 -0.001323 0.0
0.944055 -0.010472 0.0
0.920912 -0.019757 0.0
0.900836 -0.028801 0.0
0.884050 -0.037500 0.0
0.870599 -0.045760 0.0
0.860434 -0.053416 0.0
0.853436 -0.060217 0.0
0.849411 -0.065852 0.0
0.848087 -0.070002 0.0
0.849135 -0.072398 0.0
0.852179 -0.072863 0.0
0.856818 -0.071337 0.0
0.862629 -0.067887 0.0
0.869175 -0.062713 0.0
0.876010 -0.056130 0.0
0.882699 -0.048552 0.0
0.888850 -0.040444 0.0
0.894145 -0.032279 0.0
0.898369 -0.024484 0.0
0.901422 -0.017400 0.0
0.903320 -0.011259 0.0
0.904169 -0.006178 0.0
0.904138 -0.002172 0.0
0.903428 0.000823 0.0
0.902247 0.002920 0.0
0.900793 0.004259 0.0
0.899236 0.004985 0.0
0.897714 0.005239 0.0
0.896329 0.005143 0.0
0.895151 0.004801 0.0
0.894221 0.004296 0.0
0.893559 0.003694 0.0
0.893164 0.003042 0.0
0.893023 0.002373 0.0
0.893113 0.001707 0.0
0.893404 0.001054 0.0
0.893858 0.000411 0.0
0.894437 -0.000230 0.0
0.895094 -0.000882 0.0
0.895781 -0.001560 0.0
0.896446 -0.002271 0.0
0.897038 -0.003048 0.0
1.000081 0.001076 0.0
1.000394 0.003181 0.0
1.000975 0.005168 0.0
1.001755 0.007009 0.0
1.002664 0.008703 0.0
1.003638 0.010268 0.0
1.004631 0.011722 0.0
1.005605 0.013082 0.0
1.006537 0.014360 0.0
1.007412 0.015565 0.0
1.008220 0.016706 0.0
1.008958 0.017789 0.0
1.009624 0.018823 0.0
1.010221 0.019818 0.0