# vtk DataFile Version 3.0
Vector Field
ASCII
DATASET RECTILINEAR_GRID
DIMENSIONS 200 50 1
X_COORDINATES 200 double
0.050000 0.150000 0.250000 0.350000 0.450000 0.550000 0.650000 0.750000 0.850000 0.950000 1.050000 1.150000 1.250000 1.350000 1.450000 1.550000 1.650000 1.750000 1.850000 1.950000 2.050000 2.150000 2.250000 2.350000 2.450000 2.550000 2.650000 2.750000 2.850000 2.950000 3.050000 3.150000 3.250000 3.350000 3.450000 3.550000 3.650000 3.750000 3.850000 3.950000 4.050000 4.150000 4.250000 4.350000 4.450000 4.550000 4.650000 4.750000 4.850000 4.950000 5.050000 5.150000 5.250000 5.350000 5.450000 5.550000 5.650000 5.750000 5.850000 5.950000 6.050000 6.150000 6.250000 6.350000 6.450000 6.550000 6.650000 6.750000 6.850000 6.950000 7.050000 7.150000 7.250000 7.350000 7.450000 7.550000 7.650000 7.750000 7.850000 7.950000 8.050000 8.150000 8.250000 8.350000 8.450000 8.550000 8.650000 8.750000 8.850000 8.950000 9.050000 9.150000 9.250000 9.350000 9.450000 9.550000 9.650000 9.750000 9.850000 9.950000 10.050000 10.150000 10.250000 10.350000 10.450000 10.550000 10.650000 10.750000 10.850000 10.950000 11.050000 11.150000 11.250000 11.350000 11.450000 11.550000 11.650000 11.750000 11.850000 11.950000 12.050000 12.150000 12.250000 12.350000 12.450000 12.550000 12.650000 12.750000 12.850000 12.950000 13.050000 13.150000 13.250000 13.350000 13.450000 13.550000 13.650000 13.750000 13.850000 13.950000 14.050000 14.150000 14.250000 14.350000 14.450000 14.550000 14.650000 14.750000 14.850000 14.950000 15.050000 15.150000 15.250000 15.350000 15.450000 15.550000 15.650000 15.750000 15.850000 15.950000 16.050000 16.150000 16.250000 16.350000 16.450000 16.550000 16.650000 16.750000 16.850000 16.950000 17.050000 17.150000 17.250000 17.350000 17.450000 17.550000 17.650000 17.750000 17.850000 17.950000 18.050000 18.150000 18.250000 18.350000 18.450000 18.550000 18.650000 18.750000 18.850000 18.950000 19.050000 19.150000 19.250000 19.350000 19.450000 19.550000 19.650000 19.750000 19.850000 19.950000 
Y_COORDINATES 50 double
0.050000 0.150000 0.250000 0.350000 0.450000 0.550000 0.650000 0.750000 0.850000 0.950000 1.050000 1.150000 1.250000 1.350000 1.450000 1.550000 1.650000 1.750000 1.850000 1.950000 2.050000 2.150000 2.250000 2.350000 2.450000 2.550000 2.650000 2.750000 2.850000 2.950000 3.050000 3.150000 3.250000 3.350000 3.450000 3.550000 3.650000 3.750000 3.850000 3.950000 4.050000 4.150000 4.250000 4.350000 4.450000 4.550000 4.650000 4.750000 4.850000 4.950000 
Z_COORDINATES 1 double
0.0
POINT_DATA 10000
VECTORS Vektorfeld double
0.996424 0.003576 0.0
0.986667 0.006182 0.0
0.973207 0.007278 0.0
0.958129 0.007799 0.0
0.942263 0.008068 0.0
0.925984 0.008211 0.0
0.909484 0.008288 0.0
0.892872 0.008325 0.0
0.876209 0.008338 0.0
0.859535 0.008336 0.0
0.842875 0.008324 0.0
0.826246 0.008305 0.0
0.809659 0.008282 0.0
0.793121 0.008255 0.0
0.776639 0.008227 0.0
0.760214 0.008198 0.0
0.743845 0.008171 0.0
0.727528 0.008146 0.0
0.711256 0.008127 0.0
0.695014 0.008115 0.0
0.678783 0.008115 0.0
0.662538 0.008130 0.0
0.646243 0.008165 0.0
0.629852 0.008225 0.0
0.613309 0.008318 0.0
0.596541 0.008451 0.0
0.579453 0.008637 0.0
0.561927 0.008889 0.0
0.543810 0.009228 0.0
0.524902 0.009681 0.0
0.504935 0.010285 0.0
0.483558 0.011092 0.0
0.460293 0.012172 0.0
0.434502 0.013618 0.0
0.405331 0.015553 0.0
0.371648 0.018129 0.0
0.331999 0.021520 0.0
0.284588 0.025891 0.0
0.227384 0.031313 0.0
0.158480 0.037591 0.0
0.076770 0.044119 0.0
-0.014053 0.046705 0.0
-0.080046 0.019288 0.0
-0.049667 -0.049667 0.0
0.500000 0.049634 0.0
1.000000 0.000000 0.0
1.000000 0.000000 0.0
1.000000 0.000000 0.0
1.000000 0.000000 0.0
1.000000 0.000000 0.0
0.500000 0.032449 0.0
0.032584 -0.032584 0.0
0.081375 -0.016207 0.0
0.099686 -0.002104 0.0
0.094683 0.007107 0.0
0.074539 0.013037 0.0
0.048409 0.013094 0.0
0.026738 0.008577 0.0
0.014031 0.004130 0.0
0.004134 0.005766 0.0
-0.016577 0.014945 0.0
-0.057697 0.026175 0.0
-0.115621 0.031750 0.0
-0.180128 0.032757 0.0
-0.243248 0.030363 0.0
-0.299434 0.025823 0.0
-0.346208 0.020950 0.0
-0.383730 0.016572 0.0
-0.413213 0.012912 0.0
-0.436145 0.010020 0.0
-0.454026 0.007861 0.0
-0.468257 0.006370 0.0
-0.480073 0.005447 0.0
-0.490497 0.004977 0.0
-0.500325 0.004851 0.0
-0.510147 0.004971 0.0
-0.520378 0.005260 0.0
-0.531296 0.005658 0.0
-0.543082 0.006128 0.0
-0.555867 0.006657 0.0
-0.569767 0.007243 0.0
-0.584889 0.007880 0.0
-0.601293 0.008524 0.0
-0.618915 0.009098 0.0
-0.637540 0.009526 0.0
-0.656847 0.009781 0.0
-0.676518 0.009890 0.0
-0.696298 0.009889 0.0
-0.715978 0.009791 0.0
-0.735362 0.009593 0.0
-0.754245 0.009291 0.0
-0.772421 0.008886 0.0
-0.789691 0.008384 0.0
-0.805870 0.007795 0.0
-0.820799 0.007134 0.0
-0.834352 0.006419 0.0
-0.846442 0.005671 0.0
-0.857024 0.004911 0.0
-0.866082 0.004146 0.0
-0.873625 0.003397 0.0
-0.879712 0.002689 0.0
-0.884423 0.002022 0.0
-0.887821 0.001376 0.0
-0.889957 0.000759 0.0
-0.890891 0.000175 0.0
-0.890700 -0.000366 0.0
-0.889471 -0.000862 0.0
-0.887308 -0.001300 0.0
-0.884341 -0.001667 0.0
-0.880714 -0.001961 0.0
-0.876559 -0.002195 0.0
-0.871978 -0.002386 0.0
-0.867038 -0.002554 0.0
-0.861773 -0.002712 0.0
-0.856189 -0.002872 0.0
-0.850269 -0.003048 0.0
-0.843965 -0.003255 0.0
-0.837202 -0.003508 0.0
-0.829871 -0.003823 0.0
-0.821832 -0.004216 0.0
-0.812912 -0.004704 0.0
-0.802909 -0.005299 0.0
-0.791600 -0.006010 0.0
-0.778749 -0.006841 0.0
-0.764125 -0.007783 0.0
-0.747519 -0.008822 0.0
-0.728771 -0.009926 0.0
-0.707781 -0.011064 0.0
-0.684514 -0.012203 0.0
-0.658990 -0.013321 0.0
-0.631269 -0.014400 0.0
-0.601451 -0.015419 0.0
-0.569674 -0.016357 0.0
-0.536140 -0.017176 0.0
-0.501126 -0.017838 0.0
-0.464977 -0.018311 0.0
-0.428108 -0.018558 0.0
-0.390960 -0.018590 0.0
-0.353915 -0.018455 0.0
-0.317235 -0.018225 0.0
-0.281079 -0.017932 0.0
-0.245717 -0.017429 0.0
-0.211573 -0.016714 0.0
-0.179009 -0.015850 0.0
-0.148340 -0.014819 0.0
-0.119620 -0.013901 0.0
-0.092658 -0.013061 0.0
-0.067401 -0.012196 0.0
-0.043995 -0.011210 0.0
-0.022536 -0.010249 0.0
-0.002858 -0.009429 0.0
0.015318 -0.008747 0.0
0.032266 -0.008201 0.0
0.048161 -0.007693 0.0
0.063196 -0.007343 0.0
0.077764 -0.007225 0.0
0.092312 -0.007323 0.0
0.107243 -0.007607 0.0
0.122902 -0.008052 0.0
0.139585 -0.008631 0.0
0.157536 -0.009319 0.0
0.176938 -0.010083 0.0
0.197910 -0.010888 0.0
0.220496 -0.011698 0.0
0.244668 -0.012474 0.0
0.270322 -0.013180 0.0
0.297284 -0.013782 0.0
0.325320 -0.014253 0.0
0.354141 -0.014568 0.0
0.383421 -0.014712 0.0
0.412811 -0.014677 0.0
0.441948 -0.014460 0.0
0.470478 -0.014069 0.0
0.498062 -0.013515 0.0
0.524392 -0.012816 0.0
0.549202 -0.011994 0.0
0.572270 -0.011074 0.0
0.593428 -0.010084 0.0
0.612563 -0.009050 0.0
0.629611 -0.007998 0.0
0.644561 -0.006952 0.0
0.657447 -0.005933 0.0
0.668339 -0.004958 0.0
0.677338 -0.004041 0.0
0.684568 -0.003189 0.0
0.690165 -0.002409 0.0
0.694275 -0.001701 0.0
0.697040 -0.001065 0.0
0.698606 -0.000501 0.0
0.699133 -0.000026 0.0
0.698769 0.000390 0.0
0.697591 0.000789 0.0
0.695623 0.001179 0.0
0.692881 0.001564 0.0
0.689372 0.001944 0.0
0.685118 0.002310 0.0
0.680174 0.002634 0.0
0.674715 0.002825 0.0
0.669242 0.002649 0.0
0.666332 0.000261 0.0
1.001720 0.005432 0.0
1.005225 0.010579 0.0
1.008281 0.013285 0.0
1.010295 0.014856 0.0
1.011323 0.015849 0.0
1.011508 0.016525 0.0
1.010966 0.017015 0.0
1.009787 0.017389 0.0
1.008034 0.017689 0.0
1.005753 0.017939 0.0
1.002981 0.018153 0.0
0.999748 0.018340 0.0
0.996075 0.018507 0.0
0.991983 0.018659 0.0
0.987488 0.018800 0.0
0.982603 0.018936 0.0
0.977335 0.019070 0.0
0.971690 0.019208 0.0
0.965668 0.019359 0.0
0.959264 0.019529 0.0
0.952465 0.019730 0.0
0.945253 0.019973 0.0
0.937597 0.020273 0.0
0.929458 0.020646 0.0
0.920783 0.021115 0.0
0.911503 0.021704 0.0
0.901526 0.022449 0.0
0.890735 0.023394 0.0
0.878975 0.024600 0.0
0.866040 0.026152 0.0
0.851657 0.028163 0.0
0.835457 0.030792 0.0
0.816939 0.034255 0.0
0.795420 0.038845 0.0
0.769971 0.044948 0.0
0.739329 0.053058 0.0
0.701805 0.063764 0.0
0.655196 0.077669 0.0
0.596770 0.095165 0.0
0.523551 0.115862 0.0
0.433762 0.137347 0.0
0.329461 0.148602 0.0
0.206236 0.106609 0.0
0.069102 -0.030233 0.0
0.500000 0.030159 0.0
1.000000 0.000000 0.0
1.000000 0.000000 0.0
1.000000 0.000000 0.0
1.000000 0.000000 0.0
1.000000 0.000000 0.0
0.500000 0.092036 0.0
0.027279 -0.092447 0.0
0.068964 -0.046821 0.0
0.086711 -0.007548 0.0
0.084041 0.020225 0.0
0.060953 0.043150 0.0
0.016082 0.053982 0.0
-0.049456 0.054898 0.0
-0.132003 0.053063 0.0
-0.222699 0.057427 0.0
-0.310910 0.072207 0.0
-0.391610 0.090732 0.0
-0.466903 0.100410 0.0
-0.538046 0.099747 0.0
-0.602015 0.090461 0.0
-0.656178 0.076075 0.0
-0.699836 0.061130 0.0
-0.733943 0.048021 0.0
-0.760323 0.037326 0.0
-0.780813 0.029029 0.0
-0.797061 0.022981 0.0
-0.810536 0.018955 0.0
-0.822484 0.016625 0.0
-0.833876 0.015614 0.0
-0.845396 0.015563 0.0
-0.857486 0.016170 0.0
-0.870375 0.017181 0.0
-0.884107 0.018387 0.0
-0.898557 0.019635 0.0
-0.913454 0.020832 0.0
-0.928439 0.021953 0.0
-0.943157 0.023010 0.0
-0.957355 0.023995 0.0
-0.970957 0.024852 0.0
-0.984046 0.025486 0.0
-0.996750 0.025833 0.0
-1.009131 0.025892 0.0
-1.021152 0.025688 0.0
-1.032709 0.025230 0.0
-1.043675 0.024504 0.0
-1.053904 0.023492 0.0
-1.063235 0.022191 0.0
-1.071495 0.020608 0.0
-1.078513 0.018768 0.0
-1.084132 0.016710 0.0
-1.088224 0.014488 0.0
-1.090700 0.012168 0.0
-1.091522 0.009818 0.0
-1.090662 0.007438 0.0
-1.088083 0.005071 0.0
-1.083756 0.002776 0.0
-1.077696 0.000587 0.0
-1.070015 -0.001471 0.0
-1.060845 -0.003428 0.0
-1.050262 -0.005286 0.0
-1.038357 -0.007000 0.0
-1.025305 -0.008508 0.0
-1.011368 -0.009754 0.0
-0.996821 -0.010727 0.0
-0.981886 -0.011463 0.0
-0.966714 -0.012019 0.0
-0.951412 -0.012446 0.0
-0.936054 -0.012791 0.0
-0.920694 -0.013099 0.0
-0.905349 -0.013413 0.0
-0.889997 -0.013779 0.0
-0.874582 -0.014242 0.0
-0.859017 -0.014849 0.0
-0.843183 -0.015647 0.0
-0.826931 -0.016684 0.0
-0.810080 -0.018008 0.0
-0.792419 -0.019658 0.0
-0.773722 -0.021658 0.0
-0.753752 -0.024014 0.0
-0.732275 -0.026711 0.0
-0.709077 -0.029697 0.0
-0.683987 -0.032889 0.0
-0.656895 -0.036183 0.0
-0.627751 -0.039494 0.0
-0.596551 -0.042755 0.0
-0.563328 -0.045909 0.0
-0.528168 -0.048889 0.0
-0.491207 -0.051626 0.0
-0.452655 -0.053994 0.0
-0.412798 -0.055891 0.0
-0.371935 -0.057269 0.0
-0.330425 -0.057979 0.0
-0.288669 -0.058074 0.0
-0.247012 -0.057673 0.0
-0.205786 -0.056911 0.0
-0.165159 -0.056030 0.0
-0.125408 -0.054444 0.0
-0.087012 -0.052239 0.0
-0.050147 -0.049754 0.0
-0.014677 -0.047053 0.0
0.019131 -0.044195 0.0
0.050723 -0.041320 0.0
0.079926 -0.038397 0.0
0.106895 -0.035384 0.0
0.131905 -0.032544 0.0
0.155168 -0.030073 0.0
0.176889 -0.028001 0.0
0.197330 -0.026337 0.0
0.216870 -0.024991 0.0
0.235916 -0.024126 0.0
0.254765 -0.023857 0.0
0.273700 -0.024175 0.0
0.293046 -0.025033 0.0
0.313138 -0.026377 0.0
0.334288 -0.028139 0.0
0.356766 -0.030240 0.0
0.380788 -0.032586 0.0
0.406504 -0.035072 0.0
0.433989 -0.037585 0.0
0.463241 -0.040011 0.0
0.494180 -0.042236 0.0
0.526652 -0.044160 0.0
0.560432 -0.045691 0.0
0.595238 -0.046757 0.0
0.630742 -0.047308 0.0
0.666585 -0.047313 0.0
0.702388 -0.046765 0.0
0.737771 -0.045677 0.0
0.772365 -0.044084 0.0
0.805822 -0.042034 0.0
0.837830 -0.039592 0.0
0.868116 -0.036830 0.0
0.896457 -0.033827 0.0
0.922680 -0.030664 0.0
0.946668 -0.027420 0.0
0.968358 -0.024171 0.0
0.987741 -0.020983 0.0
1.004856 -0.017916 0.0
1.019791 -0.015017 0.0
1.032671 -0.012323 0.0
1.043660 -0.009860 0.0
1.052945 -0.007643 0.0
1.060735 -0.005677 0.0
1.067243 -0.003962 0.0
1.072650 -0.002499 0.0
1.077123 -0.001246 0.0
1.080874 -0.000148 0.0
1.084129 0.000828 0.0
1.087080 0.001706 0.0
1.089878 0.002513 0.0
1.092619 0.003256 0.0
1.095360 0.003891 0.0
1.098143 0.004243 0.0
1.101000 0.003846 0.0
1.102410 0.000565 0.0
1.000674 0.003038 0.0
1.002553 0.007589 0.0
1.005045 0.010727 0.0
1.007532 0.012913 0.0
1.009799 0.014496 0.0
1.011793 0.015700 0.0
1.013511 0.016662 0.0
1.014967 0.017465 0.0
1.016172 0.018162 0.0
1.017135 0.018784 0.0
1.017861 0.019353 0.0
1.018351 0.019882 0.0
1.018607 0.020381 0.0
1.018627 0.020857 0.0
1.018409 0.021316 0.0
1.017949 0.021766 0.0
1.017241 0.022215 0.0
1.016279 0.022670 0.0
1.015054 0.023144 0.0
1.013554 0.023649 0.0
1.011763 0.024200 0.0
1.009663 0.024816 0.0
1.007227 0.025521 0.0
1.004425 0.026339 0.0
1.001216 0.027305 0.0
0.997550 0.028460 0.0
0.993364 0.029856 0.0
0.988577 0.031564 0.0
0.983087 0.033680 0.0
0.976760 0.036333 0.0
0.969422 0.039703 0.0
0.960835 0.044039 0.0
0.950676 0.049686 0.0
0.938490 0.057119 0.0
0.923623 0.066990 0.0
0.905120 0.080162 0.0
0.881556 0.097747 0.0
0.850786 0.121065 0.0
0.809549 0.151431 0.0
0.752918 0.189446 0.0
0.673513 0.232957 0.0
0.559673 0.271133 0.0
0.391990 0.274985 0.0
0.145823 0.184692 0.0
0.500000 -0.184804 0.0
1.000000 0.000000 0.0
1.000000 0.000000 0.0
1.000000 0.000000 0.0
1.000000 0.000000 0.0
1.000000 0.000000 0.0
0.500000 0.132672 0.0
0.013627 -0.133352 0.0
0.029623 -0.063597 0.0
0.004998 0.016106 0.0
-0.058422 0.062661 0.0
-0.132076 0.097455 0.0
-0.208682 0.121154 0.0
-0.289414 0.133996 0.0
-0.372762 0.139858 0.0
-0.456115 0.144681 0.0
-0.537734 0.154782 0.0
-0.616271 0.167394 0.0
-0.689381 0.172150 0.0
-0.753459 0.163229 0.0
-0.804380 0.141869 0.0
-0.839899 0.114349 0.0
-0.861419 0.088034 0.0
-0.872806 0.066612 0.0
-0.877815 0.050122 0.0
-0.879016 0.037924 0.0
-0.878307 0.029624 0.0
-0.877298 0.024778 0.0
-0.877259 0.022713 0.0
-0.879001 0.022660 0.0
-0.882904 0.023940 0.0
-0.889037 0.026016 0.0
-0.897260 0.028447 0.0
-0.907266 0.030860 0.0
-0.918612 0.032958 0.0
-0.930753 0.034546 0.0
-0.943081 0.035553 0.0
-0.954981 0.036027 0.0
-0.965889 0.036083 0.0
-0.975363 0.035840 0.0
-0.983153 0.035376 0.0
-0.989229 0.034723 0.0
-0.993736 0.033891 0.0
-0.996897 0.032869 0.0
-0.998904 0.031614 0.0
-0.999878 0.030059 0.0
-0.999863 0.028151 0.0
-0.998860 0.025859 0.0
-0.996831 0.023172 0.0
-0.993707 0.020097 0.0
-0.989381 0.016673 0.0
-0.983698 0.012933 0.0
-0.976436 0.008938 0.0
-0.967409 0.004843 0.0
-0.956723 0.000867 0.0
-0.944744 -0.002918 0.0
-0.931774 -0.006533 0.0
-0.917969 -0.009970 0.0
-0.903350 -0.013213 0.0
-0.887922 -0.016285 0.0
-0.871790 -0.019145 0.0
-0.855151 -0.021685 0.0
-0.838248 -0.023779 0.0
-0.821289 -0.025379 0.0
-0.804393 -0.026545 0.0
-0.787595 -0.027378 0.0
-0.770913 -0.027957 0.0
-0.754385 -0.028339 0.0
-0.738055 -0.028586 0.0
-0.721949 -0.028770 0.0
-0.706066 -0.028971 0.0
-0.690371 -0.029268 0.0
-0.674799 -0.029740 0.0
-0.659256 -0.030460 0.0
-0.643615 -0.031510 0.0
-0.627715 -0.032972 0.0
-0.611360 -0.034927 0.0
-0.594320 -0.037439 0.0
-0.576348 -0.040546 0.0
-0.557187 -0.044258 0.0
-0.536572 -0.048559 0.0
-0.514246 -0.053373 0.0
-0.489995 -0.058555 0.0
-0.463687 -0.063918 0.0
-0.435258 -0.069331 0.0
-0.404682 -0.074694 0.0
-0.371959 -0.079915 0.0
-0.337172 -0.084830 0.0
-0.300484 -0.089334 0.0
-0.262177 -0.093145 0.0
-0.222655 -0.096118 0.0
-0.182178 -0.098383 0.0
-0.140974 -0.099579 0.0
-0.099353 -0.099852 0.0
-0.057454 -0.099452 0.0
-0.015616 -0.098197 0.0
0.025025 -0.096013 0.0
0.063809 -0.092995 0.0
0.100955 -0.089231 0.0
0.136393 -0.085066 0.0
0.169836 -0.080654 0.0
0.201218 -0.075785 0.0
0.230624 -0.070727 0.0
0.258077 -0.065647 0.0
0.283664 -0.060689 0.0
0.307487 -0.056073 0.0
0.329649 -0.051969 0.0
0.350302 -0.048479 0.0
0.369678 -0.045676 0.0
0.388095 -0.043610 0.0
0.405912 -0.042371 0.0
0.423482 -0.042031 0.0
0.441154 -0.042609 0.0
0.459285 -0.044076 0.0
0.478229 -0.046369 0.0
0.498321 -0.049389 0.0
0.519858 -0.053006 0.0
0.543083 -0.057067 0.0
0.568167 -0.061392 0.0
0.595205 -0.065788 0.0
0.624204 -0.070059 0.0
0.655085 -0.074009 0.0
0.687685 -0.077458 0.0
0.721760 -0.080248 0.0
0.757005 -0.082251 0.0
0.793059 -0.083373 0.0
0.829528 -0.083559 0.0
0.865995 -0.082790 0.0
0.902047 -0.081087 0.0
0.937280 -0.078502 0.0
0.971321 -0.075115 0.0
1.003835 -0.071033 0.0
1.034535 -0.066375 0.0
1.063187 -0.061275 0.0
1.089614 -0.055867 0.0
1.113698 -0.050289 0.0
1.135375 -0.044669 0.0
1.154636 -0.039129 0.0
1.171525 -0.033774 0.0
1.186129 -0.028697 0.0
1.198580 -0.023974 0.0
1.209045 -0.019663 0.0
1.217724 -0.015805 0.0
1.224839 -0.012422 0.0
1.230632 -0.009519 0.0
1.235360 -0.007076 0.0
1.239287 -0.005068 0.0
1.242671 -0.003460 0.0
1.245751 -0.002196 0.0
1.248741 -0.001212 0.0
1.251810 -0.000436 0.0
1.255076 0.000198 0.0
1.258568 0.000716 0.0
1.262134 0.001070 0.0
1.265229 0.001067 0.0
1.266428 0.000735 0.0
1.000311 0.002053 0.0
1.001337 0.005667 0.0
1.002948 0.008545 0.0
1.004781 0.010774 0.0
1.006633 0.012515 0.0
1.008412 0.013910 0.0
1.010078 0.015068 0.0
1.011619 0.016063 0.0
1.013031 0.016946 0.0
1.014316 0.017752 0.0
1.015475 0.018501 0.0
1.016510 0.019209 0.0
1.017420 0.019887 0.0
1.018207 0.020544 0.0
1.018867 0.021187 0.0
1.019399 0.021824 0.0
1.019801 0.022464 0.0
1.020067 0.023117 0.0
1.020192 0.023797 0.0
1.020169 0.024519 0.0
1.019988 0.025301 0.0
1.019640 0.026165 0.0
1.019109 0.027139 0.0
1.018379 0.028253 0.0
1.017430 0.029549 0.0
1.016237 0.031074 0.0
1.014774 0.032891 0.0
1.013007 0.035083 0.0
1.010900 0.037759 0.0
1.008411 0.041070 0.0
1.005491 0.045225 0.0
1.002079 0.050515 0.0
0.998094 0.057353 0.0
0.993412 0.066320 0.0
0.987825 0.078242 0.0
0.980953 0.094286 0.0
0.972052 0.116087 0.0
0.959652 0.145897 0.0
0.940793 0.186696 0.0
0.909509 0.242095 0.0
0.853778 0.315443 0.0
0.749756 0.406508 0.0
0.554188 0.502861 0.0
0.213328 0.543843 0.0
0.500000 -0.544036 0.0
1.000000 0.000000 0.0
1.000000 0.000000 0.0
1.000000 0.000000 0.0
1.000000 0.000000 0.0
1.000000 0.000000 0.0
0.500000 0.131125 0.0
-0.014988 -0.131991 0.0
-0.069754 -0.026189 0.0
-0.145082 0.078651 0.0
-0.220034 0.138489 0.0
-0.300674 0.175922 0.0
-0.381933 0.200551 0.0
-0.460441 0.213839 0.0
-0.535354 0.218275 0.0
-0.605285 0.219547 0.0
-0.672218 0.228469 0.0
-0.739989 0.240016 0.0
-0.805931 0.238580 0.0
-0.861493 0.216440 0.0
-0.897570 0.175655 0.0
-0.909737 0.128249 0.0
-0.902304 0.088221 0.0
-0.884689 0.060197 0.0
-0.863764 0.040620 0.0
-0.842301 0.027164 0.0
-0.821962 0.019336 0.0
-0.804450 0.016544 0.0
-0.791068 0.017526 0.0
-0.782339 0.020860 0.0
-0.778132 0.025437 0.0
-0.777991 0.030511 0.0
-0.781318 0.035502 0.0
-0.787413 0.039906 0.0
-0.795471 0.043317 0.0
-0.804622 0.045478 0.0
-0.813996 0.046323 0.0
-0.822802 0.045963 0.0
-0.830390 0.044643 0.0
-0.836292 0.042658 0.0
-0.840233 0.040289 0.0
-0.842097 0.037750 0.0
-0.841902 0.035175 0.0
-0.839759 0.032603 0.0
-0.835874 0.030002 0.0
-0.830517 0.027287 0.0
-0.823953 0.024345 0.0
-0.816345 0.021053 0.0
-0.807699 0.017304 0.0
-0.797878 0.013021 0.0
-0.786738 0.008283 0.0
-0.774397 0.003297 0.0
-0.761300 -0.001784 0.0
-0.747902 -0.006860 0.0
-0.734268 -0.011749 0.0
-0.720168 -0.016381 0.0
-0.705450 -0.020759 0.0
-0.690106 -0.024893 0.0
-0.674202 -0.028812 0.0
-0.657847 -0.032471 0.0
-0.641167 -0.035771 0.0
-0.624299 -0.038565 0.0
-0.607374 -0.040727 0.0
-0.590494 -0.042270 0.0
-0.573712 -0.043332 0.0
-0.557074 -0.044028 0.0
-0.540654 -0.044410 0.0
-0.524537 -0.044531 0.0
-0.508790 -0.044471 0.0
-0.493453 -0.044328 0.0
-0.478533 -0.044216 0.0
-0.464001 -0.044251 0.0
-0.449787 -0.044543 0.0
-0.435794 -0.045194 0.0
-0.421887 -0.046324 0.0
-0.407890 -0.048055 0.0
-0.393580 -0.050510 0.0
-0.378686 -0.053788 0.0
-0.362926 -0.057929 0.0
-0.346014 -0.062947 0.0
-0.327652 -0.068847 0.0
-0.307514 -0.075550 0.0
-0.285311 -0.082833 0.0
-0.260890 -0.090369 0.0
-0.234193 -0.098005 0.0
-0.205209 -0.105580 0.0
-0.173889 -0.113073 0.0
-0.140266 -0.120084 0.0
-0.104464 -0.126569 0.0
-0.066676 -0.132004 0.0
-0.027287 -0.136170 0.0
0.012917 -0.139012 0.0
0.053311 -0.140547 0.0
0.093750 -0.140942 0.0
0.133829 -0.140340 0.0
0.173110 -0.138427 0.0
0.211566 -0.134880 0.0
0.249046 -0.130391 0.0
0.285131 -0.125066 0.0
0.319533 -0.119071 0.0
0.352013 -0.112572 0.0
0.382431 -0.105668 0.0
0.410742 -0.098561 0.0
0.436943 -0.091467 0.0
0.461084 -0.084596 0.0
0.483266 -0.078172 0.0
0.503631 -0.072397 0.0
0.522374 -0.067445 0.0
0.539747 -0.063460 0.0
0.556067 -0.060563 0.0
0.571694 -0.058861 0.0
0.587014 -0.058430 0.0
0.602431 -0.059298 0.0
0.618354 -0.061442 0.0
0.635193 -0.064786 0.0
0.653331 -0.069202 0.0
0.673115 -0.074514 0.0
0.694832 -0.080501 0.0
0.718695 -0.086905 0.0
0.744828 -0.093447 0.0
0.773261 -0.099833 0.0
0.803919 -0.105775 0.0
0.836631 -0.111003 0.0
0.871133 -0.115280 0.0
0.907077 -0.118409 0.0
0.944054 -0.120245 0.0
0.981601 -0.120701 0.0
1.019230 -0.119745 0.0
1.056445 -0.117399 0.0
1.092761 -0.113739 0.0
1.127727 -0.108885 0.0
1.160940 -0.102991 0.0
1.192062 -0.096239 0.0
1.220826 -0.088826 0.0
1.247040 -0.080958 0.0
1.270593 -0.072835 0.0
1.291442 -0.064650 0.0
1.309612 -0.056579 0.0
1.325181 -0.048781 0.0
1.338280 -0.041392 0.0
1.349075 -0.034525 0.0
1.357768 -0.028270 0.0
1.364585 -0.022694 0.0
1.369775 -0.017838 0.0
1.373600 -0.013721 0.0
1.376334 -0.010336 0.0
1.378254 -0.007656 0.0
1.379633 -0.005634 0.0
1.380730 -0.004199 0.0
1.381783 -0.003252 0.0
1.382988 -0.002669 0.0
1.384466 -0.002314 0.0
1.386233 -0.002031 0.0
1.388124 -0.001640 0.0
1.389706 -0.000899 0.0
1.390095 0.001113 0.0
1.000175 0.001567 0.0
1.000809 0.004494 0.0
1.001898 0.007019 0.0
1.003244 0.009122 0.0
1.004699 0.010860 0.0
1.006171 0.012315 0.0
1.007607 0.013561 0.0
1.008980 0.014656 0.0
1.010275 0.015646 0.0
1.011484 0.016558 0.0
1.012604 0.017415 0.0
1.013633 0.018231 0.0
1.014572 0.019016 0.0
1.015421 0.019780 0.0
1.016180 0.020531 0.0
1.016850 0.021277 0.0
1.017431 0.022028 0.0
1.017923 0.022795 0.0
1.018324 0.023593 0.0
1.018634 0.024437 0.0
1.018850 0.025347 0.0
1.018970 0.026348 0.0
1.018989 0.027467 0.0
1.018906 0.028739 0.0
1.018715 0.030203 0.0
1.018418 0.031910 0.0
1.018014 0.033922 0.0
1.017514 0.036319 0.0
1.016937 0.039206 0.0
1.016320 0.042728 0.0
1.015726 0.047081 0.0
1.015255 0.052543 0.0
1.015056 0.059510 0.0
1.015347 0.068555 0.0
1.016417 0.080524 0.0
1.018611 0.096683 0.0
1.022242 0.118958 0.0
1.027329 0.150338 0.0
1.032898 0.195545 0.0
1.035238 0.262190 0.0
1.023603 0.362714 0.0
0.969609 0.517252 0.0
0.801601 0.755694 0.0
0.338150 1.095321 0.0
0.500000 -1.095667 0.0
1.000000 0.000000 0.0
1.000000 0.000000 0.0
1.000000 0.000000 0.0
1.000000 0.000000 0.0
1.000000 0.000000 0.0
0.500000 0.066965 0.0
-0.049084 -0.067919 0.0
-0.147466 0.062886 0.0
-0.241888 0.159326 0.0
-0.331717 0.222595 0.0
-0.418403 0.259142 0.0
-0.497165 0.277353 0.0
-0.567361 0.285741 0.0
-0.630477 0.284403 0.0
-0.681121 0.273995 0.0
-0.725454 0.285287 0.0
-0.780834 0.306349 0.0
-0.845060 0.302414 0.0
-0.900025 0.263135 0.0
-0.925747 0.190759 0.0
-0.910734 0.110299 0.0
-0.865633 0.053637 0.0
-0.813268 0.024802 0.0
-0.765223 0.007045 0.0
-0.721500 -0.004447 0.0
-0.682384 -0.008507 0.0
-0.649933 -0.005575 0.0
-0.625514 0.001843 0.0
-0.609019 0.011319 0.0
-0.599492 0.021245 0.0
-0.595749 0.030818 0.0
-0.596678 0.039450 0.0
-0.601171 0.046546 0.0
-0.608039 0.051604 0.0
-0.616042 0.054345 0.0
-0.623984 0.054773 0.0
-0.630832 0.053166 0.0
-0.635795 0.049991 0.0
-0.638376 0.045794 0.0
-0.638372 0.041088 0.0
-0.635829 0.036274 0.0
-0.630998 0.031624 0.0
-0.624254 0.027266 0.0
-0.615995 0.023195 0.0
-0.606548 0.019291 0.0
-0.596108 0.015338 0.0
-0.584776 0.011120 0.0
-0.572678 0.006494 0.0
-0.560150 0.001481 0.0
-0.547600 -0.003868 0.0
-0.535092 -0.009402 0.0
-0.522339 -0.014934 0.0
-0.509068 -0.020379 0.0
-0.495186 -0.025745 0.0
-0.480700 -0.030971 0.0
-0.465631 -0.035955 0.0
-0.450020 -0.040651 0.0
-0.433952 -0.045027 0.0
-0.417538 -0.049024 0.0
-0.400894 -0.052543 0.0
-0.384112 -0.055443 0.0
-0.367274 -0.057611 0.0
-0.350478 -0.059063 0.0
-0.333819 -0.059980 0.0
-0.317395 -0.060442 0.0
-0.301328 -0.060482 0.0
-0.285738 -0.060165 0.0
-0.270725 -0.059596 0.0
-0.256358 -0.058907 0.0
-0.242669 -0.058246 0.0
-0.229642 -0.057780 0.0
-0.217213 -0.057657 0.0
-0.205290 -0.057996 0.0
-0.193735 -0.058983 0.0
-0.182347 -0.060781 0.0
-0.170871 -0.063570 0.0
-0.158998 -0.067495 0.0
-0.146394 -0.072587 0.0
-0.132722 -0.078872 0.0
-0.117617 -0.086389 0.0
-0.100669 -0.095093 0.0
-0.081441 -0.104720 0.0
-0.059659 -0.114685 0.0
-0.035139 -0.124906 0.0
-0.007779 -0.135023 0.0
0.022022 -0.144750 0.0
0.053912 -0.153918 0.0
0.087724 -0.162348 0.0
0.123192 -0.169480 0.0
0.160121 -0.175013 0.0
0.198372 -0.178624 0.0
0.237652 -0.180609 0.0
0.277394 -0.181061 0.0
0.317035 -0.179943 0.0
0.356121 -0.177191 0.0
0.394340 -0.172792 0.0
0.431395 -0.167012 0.0
0.466936 -0.160071 0.0
0.500655 -0.152187 0.0
0.532303 -0.143584 0.0
0.561714 -0.134484 0.0
0.588798 -0.125140 0.0
0.613533 -0.115823 0.0
0.635956 -0.106805 0.0
0.656168 -0.098357 0.0
0.674326 -0.090735 0.0
0.690648 -0.084172 0.0
0.705417 -0.078875 0.0
0.718973 -0.075023 0.0
0.731707 -0.072761 0.0
0.744047 -0.072191 0.0
0.756452 -0.073358 0.0
0.769393 -0.076246 0.0
0.783340 -0.080767 0.0
0.798744 -0.086764 0.0
0.816017 -0.094009 0.0
0.835506 -0.102212 0.0
0.857482 -0.111033 0.0
0.882119 -0.120090 0.0
0.909487 -0.128989 0.0
0.939543 -0.137333 0.0
0.972133 -0.144748 0.0
1.007001 -0.150904 0.0
1.043792 -0.155521 0.0
1.082071 -0.158389 0.0
1.121339 -0.159372 0.0
1.161046 -0.158410 0.0
1.200616 -0.155518 0.0
1.239464 -0.150784 0.0
1.277021 -0.144362 0.0
1.312752 -0.136458 0.0
1.346185 -0.127326 0.0
1.376926 -0.117244 0.0
1.404679 -0.106508 0.0
1.429256 -0.095413 0.0
1.450576 -0.084241 0.0
1.468666 -0.073247 0.0
1.483642 -0.062659 0.0
1.495694 -0.052665 0.0
1.505066 -0.043420 0.0
1.512040 -0.035042 0.0
1.516919 -0.027617 0.0
1.520013 -0.021199 0.0
1.521639 -0.015811 0.0
1.522107 -0.011447 0.0
1.521717 -0.008074 0.0
1.520758 -0.005635 0.0
1.519506 -0.004044 0.0
1.518213 -0.003167 0.0
1.517083 -0.002829 0.0
1.516257 -0.002807 0.0
1.515783 -0.002831 0.0
1.515591 -0.002539 0.0
1.515461 -0.001451 0.0
1.514960 0.001777 0.0
1.000114 0.001278 0.0
1.000543 0.003720 0.0
1.001321 0.005925 0.0
1.002338 0.007853 0.0
1.003494 0.009518 0.0
1.004713 0.010965 0.0
1.005944 0.012242 0.0
1.007153 0.013393 0.0
1.008318 0.014449 0.0
1.009426 0.015438 0.0
1.010469 0.016374 0.0
1.011441 0.017271 0.0
1.012340 0.018138 0.0
1.013165 0.018984 0.0
1.013917 0.019816 0.0
1.014596 0.020643 0.0
1.015204 0.021474 0.0
1.015742 0.022320 0.0
1.016212 0.023197 0.0
1.016615 0.024120 0.0
1.016953 0.025109 0.0
1.017229 0.026190 0.0
1.017446 0.027389 0.0
1.017608 0.028739 0.0
1.017724 0.030278 0.0
1.017807 0.032051 0.0
1.017880 0.034112 0.0
1.017979 0.036530 0.0
1.018162 0.039389 0.0
1.018521 0.042803 0.0
1.019197 0.046924 0.0
1.020408 0.051961 0.0
1.022483 0.058215 0.0
1.025914 0.066127 0.0
1.031433 0.076364 0.0
1.040107 0.089976 0.0
1.053463 0.108678 0.0
1.073614 0.135381 0.0
1.103288 0.175260 0.0
1.145479 0.237944 0.0
1.201691 0.342384 0.0
1.264719 0.528548 0.0
1.301972 0.875153 0.0
0.653907 1.820459 0.0
-1.878727 -0.716959 0.0
-3.725572 0.000000 0.0
-3.682364 0.000000 0.0
-3.658698 0.000000 0.0
-3.623194 0.000000 0.0
-3.551646 0.000000 0.0
-1.751631 0.008924 0.0
-0.092502 0.061029 0.0
-0.244207 0.171388 0.0
-0.350493 0.251533 0.0
-0.435462 0.305186 0.0
-0.501832 0.329606 0.0
-0.549813 0.333632 0.0
-0.593709 0.343554 0.0
-0.648767 0.344764 0.0
-0.681669 0.297181 0.0
-0.695262 0.320027 0.0
-0.744844 0.376571 0.0
-0.824617 0.376191 0.0
-0.895689 0.315395 0.0
-0.915561 0.184092 0.0
-0.850531 0.036924 0.0
-0.744309 -0.024311 0.0
-0.658094 -0.035830 0.0
-0.592268 -0.046194 0.0
-0.532373 -0.054826 0.0
-0.477689 -0.051929 0.0
-0.433916 -0.038376 0.0
-0.403425 -0.020267 0.0
-0.384605 -0.001886 0.0
-0.374836 0.015153 0.0
-0.372130 0.030462 0.0
-0.374969 0.043575 0.0
-0.381857 0.053801 0.0
-0.391157 0.060517 0.0
-0.401169 0.063446 0.0
-0.410309 0.062754 0.0
-0.417277 0.059000 0.0
-0.421170 0.053013 0.0
-0.421535 0.045719 0.0
-0.418328 0.037951 0.0
-0.411814 0.030355 0.0
-0.402510 0.023409 0.0
-0.391116 0.017342 0.0
-0.378380 0.012125 0.0
-0.364991 0.007525 0.0
-0.351533 0.003206 0.0
-0.338444 -0.001171 0.0
-0.325934 -0.005824 0.0
-0.313873 -0.010789 0.0
-0.301916 -0.016105 0.0
-0.289780 -0.021808 0.0
-0.277282 -0.027778 0.0
-0.264268 -0.033820 0.0
-0.250630 -0.039825 0.0
-0.236319 -0.045689 0.0
-0.221348 -0.051278 0.0
-0.205776 -0.056511 0.0
-0.189700 -0.061312 0.0
-0.173248 -0.065604 0.0
-0.156550 -0.069305 0.0
-0.139702 -0.072311 0.0
-0.122776 -0.074507 0.0
-0.105909 -0.075831 0.0
-0.089263 -0.076517 0.0
-0.072988 -0.076605 0.0
-0.057255 -0.076120 0.0
-0.042231 -0.075141 0.0
-0.028057 -0.073807 0.0
-0.014838 -0.072282 0.0
-0.002642 -0.070756 0.0
0.008515 -0.069453 0.0
0.018673 -0.068571 0.0
0.027918 -0.068249 0.0
0.036412 -0.068778 0.0
0.044428 -0.070389 0.0
0.052305 -0.073315 0.0
0.060356 -0.077676 0.0
0.068906 -0.083560 0.0
0.078425 -0.091090 0.0
0.089443 -0.100294 0.0
0.102384 -0.111078 0.0
0.117561 -0.123141 0.0
0.135373 -0.135857 0.0
0.156123 -0.149004 0.0
0.179894 -0.162056 0.0
0.206802 -0.174425 0.0
0.236723 -0.186055 0.0
0.269252 -0.196553 0.0
0.303995 -0.205487 0.0
0.340586 -0.212527 0.0
0.378665 -0.217440 0.0
0.417806 -0.220215 0.0
0.457487 -0.220878 0.0
0.497166 -0.219446 0.0
0.536348 -0.215956 0.0
0.574610 -0.210507 0.0
0.611564 -0.203306 0.0
0.646845 -0.194599 0.0
0.680127 -0.184658 0.0
0.711138 -0.173772 0.0
0.739679 -0.162247 0.0
0.765624 -0.150407 0.0
0.788923 -0.138590 0.0
0.809599 -0.127138 0.0
0.827749 -0.116387 0.0
0.843544 -0.106658 0.0
0.857225 -0.098252 0.0
0.869102 -0.091441 0.0
0.879550 -0.086461 0.0
0.888998 -0.083505 0.0
0.897925 -0.082713 0.0
0.906839 -0.084155 0.0
0.916270 -0.087822 0.0
0.926749 -0.093618 0.0
0.938787 -0.101355 0.0
0.952853 -0.110755 0.0
0.969354 -0.121456 0.0
0.988614 -0.133025 0.0
1.010856 -0.144978 0.0
1.036194 -0.156806 0.0
1.064623 -0.168000 0.0
1.096027 -0.178075 0.0
1.130179 -0.186596 0.0
1.166756 -0.193196 0.0
1.205348 -0.197587 0.0
1.245479 -0.199573 0.0
1.286614 -0.199051 0.0
1.328176 -0.196010 0.0
1.369563 -0.190528 0.0
1.410157 -0.182768 0.0
1.449344 -0.172970 0.0
1.486532 -0.161435 0.0
1.521174 -0.148517 0.0
1.552789 -0.134604 0.0
1.580992 -0.120098 0.0
1.605515 -0.105400 0.0
1.626223 -0.090886 0.0
1.643120 -0.076893 0.0
1.656347 -0.063709 0.0
1.666159 -0.051561 0.0
1.672902 -0.040618 0.0
1.676974 -0.030992 0.0
1.678804 -0.022748 0.0
1.678817 -0.015901 0.0
1.677422 -0.010430 0.0
1.674992 -0.006271 0.0
1.671865 -0.003352 0.0
1.668366 -0.001576 0.0
1.664787 -0.000763 0.0
1.661360 -0.000676 0.0
1.658256 -0.001030 0.0