# vtk DataFile Version 3.0
Vector Field
ASCII
DATASET RECTILINEAR_GRID
DIMENSIONS 200 50 1
X_COORDINATES 200 double
0.050000 0.150000 0.250000 0.350000 0.450000 0.550000 0.650000 0.750000 0.850000 0.950000 1.050000 1.150000 1.250000 1.350000 1.450000 1.550000 1.650000 1.750000 1.850000 1.950000 2.050000 2.150000 2.250000 2.350000 2.450000 2.550000 2.650000 2.750000 2.850000 2.950000 3.050000 3.150000 3.250000 3.350000 3.450000 3.550000 3.650000 3.750000 3.850000 3.950000 4.050000 4.150000 4.250000 4.350000 4.450000 4.550000 4.650000 4.750000 4.850000 4.950000 5.050000 5.150000 5.250000 5.350000 5.450000 5.550000 5.650000 5.750000 5.850000 5.950000 6.050000 6.150000 6.250000 6.350000 6.450000 6.550000 6.650000 6.750000 6.850000 6.950000 7.050000 7.150000 7.250000 7.350000 7.450000 7.550000 7.650000 7.750000 7.850000 7.950000 8.050000 8.150000 8.250000 8.350000 8.450000 8.550000 8.650000 8.750000 8.850000 8.950000 9.050000 9.150000 9.250000 9.350000 9.450000 9.550000 9.650000 9.750000 9.850000 9.950000 10.050000 10.150000 10.250000 10.350000 10.450000 10.550000 10.650000 10.750000 10.850000 10.950000 11.050000 11.150000 11.250000 11.350000 11.450000 11.550000 11.650000 11.750000 11.850000 11.950000 12.050000 12.150000 12.250000 12.350000 12.450000 12.550000 12.650000 12.750000 12.850000 12.950000 13.050000 13.150000 13.250000 13.350000 13.450000 13.550000 13.650000 13.750000 13.850000 13.950000 14.050000 14.150000 14.250000 14.350000 14.450000 14.550000 14.650000 14.750000 14.850000 14.950000 15.050000 15.150000 15.250000 15.350000 15.450000 15.550000 15.650000 15.750000 15.850000 15.950000 16.050000 16.150000 16.250000 16.350000 16.450000 16.550000 16.650000 16.750000 16.850000 16.950000 17.050000 17.150000 17.250000 17.350000 17.450000 17.550000 17.650000 17.750000 17.850000 17.950000 18.050000 18.150000 18.250000 18.350000 18.450000 18.550000 18.650000 18.750000 18.850000 18.950000 19.050000 19.150000 19.250000 19.350000 19.450000 19.550000 19.650000 19.750000 19.850000 19.950000 
Y_COORDINATES 50 double
0.050000 0.150000 0.250000 0.350000 0.450000 0.550000 0.650000 0.750000 0.850000 0.950000 1.050000 1.150000 1.250000 1.350000 1.450000 1.550000 1.650000 1.750000 1.850000 1.950000 2.050000 2.150000 2.250000 2.350000 2.450000 2.550000 2.650000 2.750000 2.850000 2.950000 3.050000 3.150000 3.250000 3.350000 3.450000 3.550000 3.650000 3.750000 3.850000 3.950000 4.050000 4.150000 4.250000 4.350000 4.450000 4.550000 4.650000 4.750000 4.850000 4.950000 
Z_COORDINATES 1 double
0.0
POINT_DATA 10000
VECTORS Vektorfeld double
0.996420 0.003579 0.0
0.986649 0.006192 0.0
0.973161 0.007296 0.0
0.958041 0.007823 0.0
0.942119 0.008099 0.0
0.925771 0.008249 0.0
0.909190 0.008332 0.0
0.892484 0.008374 0.0
0.875717 0.008392 0.0
0.858930 0.008395 0.0
0.842147 0.008388 0.0
0.825384 0.008374 0.0
0.808653 0.008357 0.0
0.791960 0.008336 0.0
0.775309 0.008315 0.0
0.758700 0.008294 0.0
0.742130 0.008276 0.0
0.725594 0.008261 0.0
0.709080 0.008253 0.0
0.692574 0.008253 0.0
0.676054 0.008266 0.0
0.659492 0.008295 0.0
0.642852 0.008344 0.0
0.626088 0.008419 0.0
0.609142 0.008527 0.0
0.591941 0.008674 0.0
0.574393 0.008873 0.0
0.556382 0.009138 0.0
0.537758 0.009487 0.0
0.518323 0.009947 0.0
0.497820 0.010555 0.0
0.475904 0.011361 0.0
0.452112 0.012431 0.0
0.425825 0.013856 0.0
0.396215 0.015754 0.0
0.362190 0.018271 0.0
0.322345 0.021574 0.0
0.274950 0.025820 0.0
0.218057 0.031073 0.0
0.149841 0.037143 0.0
0.069203 0.043495 0.0
-0.019618 0.045327 0.0
-0.082064 0.017119 0.0
-0.049591 -0.049591 0.0
0.500000 0.049583 0.0
1.000000 0.000000 0.0
1.000000 0.000000 0.0
1.000000 0.000000 0.0
1.000000 0.000000 0.0
1.000000 0.000000 0.0
0.500000 0.035454 0.0
0.035482 -0.035482 0.0
0.090940 -0.019977 0.0
0.114865 -0.003948 0.0
0.113658 0.005155 0.0
0.097976 0.010527 0.0
0.074948 0.012502 0.0
0.051241 0.011205 0.0
0.032019 0.008017 0.0
0.017913 0.006089 0.0
0.005870 0.005955 0.0
-0.006425 0.006340 0.0
-0.018939 0.006175 0.0
-0.029746 0.004633 0.0
-0.036309 0.001930 0.0
-0.036997 -0.001242 0.0
-0.031233 -0.004522 0.0
-0.019247 -0.007463 0.0
-0.002015 -0.009769 0.0
0.018929 -0.011175 0.0
0.041775 -0.011672 0.0
0.064777 -0.011329 0.0
0.086298 -0.010192 0.0
0.104625 -0.008135 0.0
0.117659 -0.004899 0.0
0.123056 -0.000498 0.0
0.119682 0.003872 0.0
0.107909 0.007900 0.0
0.088263 0.011745 0.0
0.060996 0.015522 0.0
0.026363 0.019111 0.0
-0.014912 0.022163 0.0
-0.061945 0.024870 0.0
-0.114125 0.027310 0.0
-0.170851 0.029417 0.0
-0.231446 0.031178 0.0
-0.295216 0.032592 0.0
-0.361478 0.033669 0.0
-0.429569 0.034421 0.0
-0.498854 0.034863 0.0
-0.568728 0.035011 0.0
-0.638623 0.034884 0.0
-0.708008 0.034501 0.0
-0.776389 0.033881 0.0
-0.843312 0.033042 0.0
-0.908359 0.032004 0.0
-0.971143 0.030781 0.0
-1.031311 0.029388 0.0
-1.088537 0.027838 0.0
-1.142521 0.026145 0.0
-1.192986 0.024320 0.0
-1.239683 0.022377 0.0
-1.282390 0.020329 0.0
-1.320913 0.018194 0.0
-1.355098 0.015991 0.0
-1.384829 0.013740 0.0
-1.410033 0.011464 0.0
-1.430681 0.009184 0.0
-1.446780 0.006916 0.0
-1.458366 0.004670 0.0
-1.465489 0.002452 0.0
-1.468195 0.000255 0.0
-1.466553 -0.001896 0.0
-1.460643 -0.004014 0.0
-1.450587 -0.006041 0.0
-1.436570 -0.007976 0.0
-1.418771 -0.009823 0.0
-1.397365 -0.011584 0.0
-1.372521 -0.013259 0.0
-1.344422 -0.014841 0.0
-1.313258 -0.016323 0.0
-1.279239 -0.017696 0.0
-1.242589 -0.018953 0.0
-1.203546 -0.020090 0.0
-1.162352 -0.021104 0.0
-1.119252 -0.021996 0.0
-1.074490 -0.022767 0.0
-1.028302 -0.023422 0.0
-0.980913 -0.023966 0.0
-0.932541 -0.024406 0.0
-0.883390 -0.024745 0.0
-0.833658 -0.024988 0.0
-0.783523 -0.025147 0.0
-0.733143 -0.025234 0.0
-0.682662 -0.025247 0.0
-0.632253 -0.025163 0.0
-0.582133 -0.024957 0.0
-0.532544 -0.024632 0.0
-0.483701 -0.024212 0.0
-0.435767 -0.023722 0.0
-0.388906 -0.023139 0.0
-0.343314 -0.022453 0.0
-0.299182 -0.021679 0.0
-0.256659 -0.020844 0.0
-0.215856 -0.019959 0.0
-0.176888 -0.019008 0.0
-0.139870 -0.018010 0.0
-0.104850 -0.017011 0.0
-0.071740 -0.016099 0.0
-0.040395 -0.015246 0.0
-0.010661 -0.014489 0.0
0.017977 -0.014149 0.0
0.045582 -0.013457 0.0
0.071552 -0.012514 0.0
0.095737 -0.011671 0.0
0.118389 -0.010981 0.0
0.139801 -0.010430 0.0
0.160226 -0.009994 0.0
0.179875 -0.009655 0.0
0.198924 -0.009394 0.0
0.217516 -0.009197 0.0
0.235759 -0.009046 0.0
0.253726 -0.008921 0.0
0.271450 -0.008803 0.0
0.288922 -0.008669 0.0
0.306093 -0.008501 0.0
0.322876 -0.008281 0.0
0.339154 -0.007997 0.0
0.354795 -0.007644 0.0
0.369662 -0.007224 0.0
0.383633 -0.006747 0.0
0.396608 -0.006229 0.0
0.408526 -0.005689 0.0
0.419365 -0.005149 0.0
0.429141 -0.004627 0.0
0.437906 -0.004138 0.0
0.445736 -0.003693 0.0
0.452730 -0.003301 0.0
0.458997 -0.002967 0.0
0.464657 -0.002693 0.0
0.469833 -0.002483 0.0
0.474653 -0.002337 0.0
0.479246 -0.002256 0.0
0.483741 -0.002239 0.0
0.488265 -0.002285 0.0
0.492944 -0.002393 0.0
0.497894 -0.002558 0.0
0.503226 -0.002774 0.0
0.509033 -0.003033 0.0
0.515389 -0.003322 0.0
0.522327 -0.003617 0.0
0.529829 -0.003885 0.0
0.537789 -0.004074 0.0
0.545975 -0.004112 0.0
0.553987 -0.003900 0.0
0.561213 -0.003326 0.0
0.566849 -0.002310 0.0
0.570074 -0.000915 0.0
0.570562 0.000427 0.0
0.569757 0.000378 0.0
1.001716 0.005443 0.0
1.005206 0.010611 0.0
1.008234 0.013338 0.0
1.010206 0.014929 0.0
1.011178 0.015943 0.0
1.011293 0.016639 0.0
1.010669 0.017147 0.0
1.009396 0.017538 0.0
1.007538 0.017853 0.0
1.005142 0.018117 0.0
1.002245 0.018346 0.0
0.998876 0.018548 0.0
0.995056 0.018733 0.0
0.990805 0.018904 0.0
0.986136 0.019067 0.0
0.981060 0.019227 0.0
0.975583 0.019389 0.0
0.969709 0.019558 0.0
0.963435 0.019743 0.0
0.956754 0.019951 0.0
0.949650 0.020192 0.0
0.942103 0.020478 0.0
0.934081 0.020823 0.0
0.925544 0.021243 0.0
0.916436 0.021757 0.0
0.906689 0.022392 0.0
0.896213 0.023180 0.0
0.884889 0.024165 0.0
0.872567 0.025407 0.0
0.859043 0.026986 0.0
0.844049 0.029013 0.0
0.827226 0.031643 0.0
0.808083 0.035083 0.0
0.785955 0.039618 0.0
0.759938 0.045619 0.0
0.728805 0.053564 0.0
0.690916 0.064016 0.0
0.644134 0.077555 0.0
0.585818 0.094547 0.0
0.513114 0.114589 0.0
0.424481 0.135319 0.0
0.321794 0.145011 0.0
0.199789 0.101886 0.0
0.066070 -0.033112 0.0
0.500000 0.033103 0.0
1.000000 0.000000 0.0
1.000000 0.000000 0.0
1.000000 0.000000 0.0
1.000000 0.000000 0.0
1.000000 0.000000 0.0
0.500000 0.100452 0.0
0.029572 -0.100536 0.0
0.077381 -0.058190 0.0
0.100593 -0.012872 0.0
0.102008 0.013871 0.0
0.087659 0.031842 0.0
0.061468 0.040406 0.0
0.027844 0.040631 0.0
-0.010970 0.036628 0.0
-0.051777 0.032390 0.0
-0.090984 0.030904 0.0
-0.128375 0.031075 0.0
-0.163561 0.029140 0.0
-0.194093 0.023006 0.0
-0.217674 0.013700 0.0
-0.233522 0.003525 0.0
-0.241915 -0.006660 0.0
-0.243156 -0.016070 0.0
-0.238196 -0.023355 0.0
-0.229217 -0.027511 0.0
-0.218933 -0.028466 0.0
-0.209973 -0.026497 0.0
-0.204626 -0.021892 0.0
-0.204649 -0.014739 0.0
-0.210979 -0.004997 0.0
-0.223361 0.006585 0.0
-0.241713 0.018515 0.0
-0.266704 0.030021 0.0
-0.298440 0.041006 0.0
-0.336409 0.051498 0.0
-0.379894 0.061255 0.0
-0.428369 0.069768 0.0
-0.481311 0.077240 0.0
-0.537969 0.083777 0.0
-0.597604 0.089312 0.0
-0.659559 0.093833 0.0
-0.723208 0.097357 0.0
-0.787957 0.099916 0.0
-0.853241 0.101550 0.0
-0.918524 0.102302 0.0
-0.983300 0.102222 0.0
-1.047092 0.101361 0.0
-1.109456 0.099773 0.0
-1.169977 0.097512 0.0
-1.228275 0.094632 0.0
-1.283995 0.091181 0.0
-1.336815 0.087207 0.0
-1.386436 0.082751 0.0
-1.432583 0.077849 0.0
-1.475002 0.072537 0.0
-1.513457 0.066849 0.0
-1.547734 0.060821 0.0
-1.577638 0.054495 0.0
-1.603001 0.047916 0.0
-1.623685 0.041139 0.0
-1.639590 0.034227 0.0
-1.650651 0.027243 0.0
-1.656850 0.020251 0.0
-1.658203 0.013301 0.0
-1.654748 0.006417 0.0
-1.646587 -0.000334 0.0
-1.634153 -0.006687 0.0
-1.617999 -0.012751 0.0
-1.598495 -0.018574 0.0
-1.575885 -0.024147 0.0
-1.550284 -0.029488 0.0
-1.521784 -0.034610 0.0
-1.490473 -0.039514 0.0
-1.456454 -0.044191 0.0
-1.419844 -0.048618 0.0
-1.380787 -0.052767 0.0
-1.339449 -0.056609 0.0
-1.296018 -0.060121 0.0
-1.250697 -0.063287 0.0
-1.203697 -0.066100 0.0
-1.155237 -0.068559 0.0
-1.105532 -0.070669 0.0
-1.054795 -0.072445 0.0
-1.003224 -0.073903 0.0
-0.951007 -0.075060 0.0
-0.898324 -0.075925 0.0
-0.845354 -0.076510 0.0
-0.792259 -0.076853 0.0
-0.739172 -0.076995 0.0
-0.686207 -0.076930 0.0
-0.633514 -0.076582 0.0
-0.581312 -0.075860 0.0
-0.529841 -0.074788 0.0
-0.479277 -0.073462 0.0
-0.429711 -0.071971 0.0
-0.381274 -0.070187 0.0
-0.334194 -0.068078 0.0
-0.288673 -0.065708 0.0
-0.244821 -0.063190 0.0
-0.202669 -0.060568 0.0
-0.162302 -0.057734 0.0
-0.123837 -0.054766 0.0
-0.087321 -0.051792 0.0
-0.052596 -0.049152 0.0
-0.019446 -0.046687 0.0
0.012335 -0.044563 0.0
0.042623 -0.042999 0.0
0.071278 -0.040866 0.0
0.098433 -0.038229 0.0
0.124161 -0.035869 0.0
0.148649 -0.033924 0.0
0.172108 -0.032358 0.0
0.194736 -0.031120 0.0
0.216720 -0.030163 0.0
0.238231 -0.029446 0.0
0.259419 -0.028926 0.0
0.280411 -0.028552 0.0
0.301300 -0.028271 0.0
0.322145 -0.028022 0.0
0.342965 -0.027742 0.0
0.363732 -0.027367 0.0
0.384379 -0.026844 0.0
0.404795 -0.026129 0.0
0.424842 -0.025199 0.0
0.444360 -0.024054 0.0
0.463188 -0.022714 0.0
0.481174 -0.021222 0.0
0.498188 -0.019629 0.0
0.514133 -0.017993 0.0
0.528942 -0.016368 0.0
0.542580 -0.014798 0.0
0.555037 -0.013320 0.0
0.566330 -0.011960 0.0
0.576494 -0.010739 0.0
0.585586 -0.009672 0.0
0.593678 -0.008773 0.0
0.600864 -0.008053 0.0
0.607252 -0.007520 0.0
0.612965 -0.007182 0.0
0.618139 -0.007040 0.0
0.622917 -0.007095 0.0
0.627452 -0.007341 0.0
0.631901 -0.007771 0.0
0.636423 -0.008367 0.0
0.641180 -0.009101 0.0
0.646330 -0.009926 0.0
0.652018 -0.010766 0.0
0.658368 -0.011503 0.0
0.665461 -0.011963 0.0
0.673304 -0.011904 0.0
0.681781 -0.011024 0.0
0.690562 -0.009028 0.0
0.698950 -0.005809 0.0
0.705596 -0.001813 0.0
0.707780 0.001238 0.0
1.000670 0.003056 0.0
1.002536 0.007641 0.0
1.005002 0.010813 0.0
1.007450 0.013033 0.0
1.009666 0.014651 0.0
1.011595 0.015887 0.0
1.013239 0.016878 0.0
1.014610 0.017709 0.0
1.015720 0.018430 0.0
1.016580 0.019076 0.0
1.017194 0.019669 0.0
1.017565 0.020224 0.0
1.017691 0.020750 0.0
1.017572 0.021257 0.0
1.017203 0.021752 0.0
1.016579 0.022242 0.0
1.015695 0.022735 0.0
1.014540 0.023241 0.0
1.013104 0.023770 0.0
1.011374 0.024336 0.0
1.009332 0.024953 0.0
1.006955 0.025641 0.0
1.004218 0.026420 0.0
1.001086 0.027315 0.0
0.997518 0.028360 0.0
0.993461 0.029593 0.0
0.988851 0.031066 0.0
0.983607 0.032847 0.0
0.977627 0.035028 0.0
0.970778 0.037737 0.0
0.962887 0.041147 0.0
0.953722 0.045499 0.0
0.942962 0.051130 0.0
0.930162 0.058499 0.0
0.914682 0.068235 0.0
0.895588 0.081175 0.0
0.871490 0.098392 0.0
0.840292 0.121159 0.0
0.798819 0.150733 0.0
0.742276 0.187651 0.0
0.663479 0.229687 0.0
0.550923 0.265885 0.0
0.385754 0.268186 0.0
0.143551 0.176509 0.0
0.500000 -0.176513 0.0
1.000000 0.000000 0.0
1.000000 0.000000 0.0
1.000000 0.000000 0.0
1.000000 0.000000 0.0
1.000000 0.000000 0.0
0.500000 0.145254 0.0
0.015278 -0.145386 0.0
0.036316 -0.082187 0.0
0.031202 -0.006974 0.0
-0.006050 0.043810 0.0
-0.059855 0.070058 0.0
-0.115862 0.084387 0.0
-0.173547 0.087959 0.0
-0.230267 0.084835 0.0
-0.282574 0.077296 0.0
-0.329050 0.071682 0.0
-0.371970 0.070608 0.0
-0.412956 0.065780 0.0
-0.449117 0.053059 0.0
-0.476879 0.034991 0.0
-0.495235 0.016439 0.0
-0.504958 -0.001459 0.0
-0.506661 -0.018328 0.0
-0.501389 -0.031330 0.0
-0.491757 -0.038147 0.0
-0.480958 -0.038913 0.0
-0.471657 -0.034312 0.0
-0.466038 -0.025043 0.0
-0.465714 -0.011890 0.0
-0.471402 0.004173 0.0
-0.483370 0.021765 0.0
-0.501730 0.040046 0.0
-0.526252 0.058002 0.0
-0.556488 0.074997 0.0
-0.591743 0.090731 0.0
-0.631186 0.104951 0.0
-0.674050 0.117411 0.0
-0.719628 0.128118 0.0
-0.767211 0.137140 0.0
-0.816144 0.144517 0.0
-0.865863 0.150300 0.0
-0.915881 0.154556 0.0
-0.965771 0.157357 0.0
-1.015159 0.158780 0.0
-1.063705 0.158901 0.0
-1.111102 0.157796 0.0
-1.157067 0.155544 0.0
-1.201338 0.152224 0.0
-1.243669 0.147914 0.0
-1.283835 0.142692 0.0
-1.321624 0.136630 0.0
-1.356840 0.129794 0.0
-1.389300 0.122244 0.0
-1.418831 0.114034 0.0
-1.445272 0.105212 0.0
-1.468471 0.095827 0.0
-1.488282 0.085931 0.0
-1.504576 0.075582 0.0
-1.517235 0.064850 0.0
-1.526161 0.053816 0.0
-1.531284 0.042577 0.0
-1.532566 0.031236 0.0
-1.530006 0.019898 0.0
-1.523652 0.008653 0.0
-1.513633 -0.002410 0.0
-1.500515 -0.012786 0.0
-1.484673 -0.022511 0.0
-1.466031 -0.031723 0.0
-1.444637 -0.040499 0.0
-1.420542 -0.048928 0.0
-1.393797 -0.057054 0.0
-1.364446 -0.064896 0.0
-1.332537 -0.072448 0.0
-1.298136 -0.079679 0.0
-1.261337 -0.086540 0.0
-1.222265 -0.092974 0.0
-1.181079 -0.098926 0.0
-1.137964 -0.104350 0.0
-1.093127 -0.109217 0.0
-1.046779 -0.113518 0.0
-0.999138 -0.117243 0.0
-0.950429 -0.120400 0.0
-0.900862 -0.123018 0.0
-0.850633 -0.125130 0.0
-0.799914 -0.126769 0.0
-0.748870 -0.127942 0.0
-0.697696 -0.128637 0.0
-0.646585 -0.128931 0.0
-0.595667 -0.128923 0.0
-0.545013 -0.128621 0.0
-0.494731 -0.127867 0.0
-0.445078 -0.126430 0.0
-0.396356 -0.124410 0.0
-0.348750 -0.122010 0.0
-0.302258 -0.119483 0.0
-0.257005 -0.116365 0.0
-0.213340 -0.112646 0.0
-0.171493 -0.108508 0.0
-0.131506 -0.104229 0.0
-0.093333 -0.099853 0.0
-0.057093 -0.095058 0.0
-0.022848 -0.090152 0.0
0.009612 -0.085383 0.0
0.040170 -0.080843 0.0
0.068583 -0.076559 0.0
0.094848 -0.072737 0.0
0.118914 -0.069179 0.0
0.141032 -0.065459 0.0
0.161820 -0.061579 0.0
0.181671 -0.058099 0.0
0.200655 -0.055166 0.0
0.218854 -0.052773 0.0
0.236400 -0.050879 0.0
0.253449 -0.049437 0.0
0.270160 -0.048394 0.0
0.286685 -0.047690 0.0
0.303155 -0.047250 0.0
0.319681 -0.046988 0.0
0.336337 -0.046807 0.0
0.353160 -0.046600 0.0
0.370142 -0.046259 0.0
0.387227 -0.045684 0.0
0.404313 -0.044792 0.0
0.421262 -0.043532 0.0
0.437909 -0.041887 0.0
0.454081 -0.039882 0.0
0.469617 -0.037576 0.0
0.484378 -0.035051 0.0
0.498258 -0.032396 0.0
0.511180 -0.029697 0.0
0.523099 -0.027026 0.0
0.533989 -0.024440 0.0
0.543839 -0.021984 0.0
0.552656 -0.019696 0.0
0.560458 -0.017609 0.0
0.567285 -0.015755 0.0
0.573193 -0.014165 0.0
0.578260 -0.012863 0.0
0.582579 -0.011872 0.0
0.586262 -0.011206 0.0
0.589430 -0.010875 0.0
0.592216 -0.010883 0.0
0.594764 -0.011226 0.0
0.597226 -0.011895 0.0
0.599760 -0.012864 0.0
0.602535 -0.014087 0.0
0.605719 -0.015477 0.0
0.609476 -0.016898 0.0
0.613951 -0.018135 0.0
0.619245 -0.018870 0.0
0.625368 -0.018657 0.0
0.632131 -0.016940 0.0
0.638974 -0.013129 0.0
0.644652 -0.006816 0.0
0.646366 0.002343 0.0
1.000307 0.002078 0.0
1.001321 0.005740 0.0
1.002906 0.008664 0.0
1.004701 0.010939 0.0
1.006504 0.012726 0.0
1.008221 0.014165 0.0
1.009815 0.015363 0.0
1.011275 0.016394 0.0
1.012597 0.017311 0.0
1.013785 0.018148 0.0
1.014840 0.018929 0.0
1.015763 0.019671 0.0
1.016554 0.020386 0.0
1.017212 0.021083 0.0
1.017736 0.021771 0.0
1.018122 0.022460 0.0
1.018367 0.023158 0.0
1.018463 0.023876 0.0
1.018406 0.024628 0.0
1.018184 0.025429 0.0
1.017789 0.026297 0.0
1.017207 0.027255 0.0
1.016422 0.028327 0.0
1.015415 0.029546 0.0
1.014165 0.030949 0.0
1.012644 0.032582 0.0
1.010824 0.034507 0.0
1.008671 0.036802 0.0
1.006147 0.039577 0.0
1.003209 0.042976 0.0
0.999805 0.047202 0.0
0.995876 0.052539 0.0
0.991339 0.059387 0.0
0.986071 0.068310 0.0
0.979865 0.080109 0.0
0.972343 0.095916 0.0
0.962775 0.117317 0.0
0.949712 0.146495 0.0
0.930245 0.186337 0.0
0.898510 0.240325 0.0
0.842681 0.311639 0.0
0.739293 0.399876 0.0
0.545926 0.492731 0.0
0.210016 0.530076 0.0
0.500000 -0.530083 0.0
1.000000 0.000000 0.0
1.000000 0.000000 0.0
1.000000 0.000000 0.0
1.000000 0.000000 0.0
1.000000 0.000000 0.0
0.500000 0.150247 0.0
-0.010265 -0.150399 0.0
-0.047597 -0.060881 0.0
-0.108373 0.037610 0.0
-0.171267 0.099372 0.0
-0.233060 0.130094 0.0
-0.298738 0.146035 0.0
-0.363767 0.149026 0.0
-0.424972 0.141693 0.0
-0.477718 0.125489 0.0
-0.519648 0.111895 0.0
-0.559648 0.113315 0.0
-0.603734 0.108145 0.0
-0.643946 0.087068 0.0
-0.671859 0.056655 0.0
-0.687203 0.028476 0.0
-0.693235 0.002258 0.0
-0.689903 -0.023673 0.0
-0.677537 -0.043623 0.0
-0.660492 -0.052532 0.0
-0.643404 -0.052414 0.0
-0.628775 -0.044742 0.0
-0.618528 -0.030480 0.0
-0.614200 -0.011105 0.0
-0.616609 0.011485 0.0
-0.625871 0.035683 0.0
-0.641549 0.060166 0.0
-0.662892 0.083747 0.0
-0.689012 0.105608 0.0
-0.718926 0.125289 0.0
-0.751636 0.142546 0.0
-0.786232 0.157275 0.0
-0.821932 0.169532 0.0
-0.858081 0.179458 0.0
-0.894156 0.187207 0.0
-0.929768 0.192941 0.0
-0.964644 0.196810 0.0
-0.998604 0.198953 0.0
-1.031526 0.199493 0.0
-1.063330 0.198538 0.0
-1.093956 0.196182 0.0
-1.123347 0.192514 0.0
-1.151443 0.187620 0.0
-1.178172 0.181579 0.0
-1.203452 0.174473 0.0
-1.227187 0.166373 0.0
-1.249269 0.157348 0.0
-1.269575 0.147457 0.0
-1.287973 0.136751 0.0
-1.304316 0.125279 0.0
-1.318446 0.113088 0.0
-1.330194 0.100230 0.0
-1.339383 0.086766 0.0
-1.345836 0.072777 0.0
-1.349382 0.058363 0.0
-1.349876 0.043648 0.0
-1.347211 0.028782 0.0
-1.341339 0.013921 0.0
-1.332247 -0.000816 0.0
-1.320429 -0.014779 0.0
-1.306197 -0.027767 0.0
-1.289420 -0.040150 0.0
-1.270167 -0.051978 0.0
-1.248463 -0.063341 0.0
-1.224321 -0.074324 0.0
-1.197740 -0.084984 0.0
-1.168714 -0.095342 0.0
-1.137248 -0.105376 0.0
-1.103372 -0.115027 0.0
-1.067157 -0.124205 0.0
-1.028718 -0.132819 0.0
-0.988213 -0.140774 0.0
-0.945837 -0.147992 0.0
-0.901811 -0.154439 0.0
-0.856348 -0.160107 0.0
-0.809670 -0.164972 0.0
-0.762020 -0.169031 0.0
-0.713626 -0.172346 0.0
-0.664679 -0.174978 0.0
-0.615322 -0.176999 0.0
-0.565654 -0.178424 0.0
-0.515860 -0.179123 0.0
-0.466195 -0.179221 0.0
-0.416826 -0.178921 0.0
-0.367804 -0.178297 0.0
-0.319164 -0.177114 0.0
-0.271174 -0.174828 0.0
-0.224176 -0.171733 0.0
-0.178370 -0.168098 0.0
-0.133810 -0.164447 0.0
-0.090728 -0.159735 0.0
-0.049492 -0.154177 0.0
-0.010041 -0.148274 0.0
0.027488 -0.141979 0.0
0.062502 -0.135291 0.0
0.094881 -0.128239 0.0
0.124837 -0.121171 0.0
0.152340 -0.114327 0.0
0.177434 -0.107550 0.0
0.200240 -0.101071 0.0
0.220774 -0.095024 0.0
0.239138 -0.089323 0.0
0.255620 -0.083915 0.0
0.270580 -0.078872 0.0
0.284300 -0.074376 0.0
0.296961 -0.070532 0.0
0.308721 -0.067366 0.0
0.319752 -0.064863 0.0
0.330234 -0.062984 0.0
0.340350 -0.061674 0.0
0.350275 -0.060859 0.0
0.360169 -0.060446 0.0
0.370173 -0.060322 0.0
0.380398 -0.060354 0.0
0.390920 -0.060397 0.0
0.401769 -0.060293 0.0
0.412924 -0.059890 0.0
0.424309 -0.059057 0.0
0.435797 -0.057703 0.0
0.447226 -0.055790 0.0
0.458417 -0.053342 0.0
0.469201 -0.050436 0.0
0.479433 -0.047185 0.0
0.489009 -0.043717 0.0
0.497861 -0.040149 0.0
0.505946 -0.036577 0.0
0.513240 -0.033071 0.0
0.519725 -0.029688 0.0
0.525391 -0.026475 0.0
0.530239 -0.023481 0.0
0.534287 -0.020758 0.0
0.537572 -0.018355 0.0
0.540153 -0.016319 0.0
0.542105 -0.014687 0.0
0.543519 -0.013487 0.0
0.544493 -0.012736 0.0
0.545132 -0.012447 0.0
0.545547 -0.012624 0.0
0.545851 -0.013263 0.0
0.546166 -0.014346 0.0
0.546615 -0.015829 0.0
0.547325 -0.017628 0.0
0.548420 -0.019599 0.0
0.550019 -0.021508 0.0
0.552217 -0.022990 0.0
0.555052 -0.023495 0.0
0.558428 -0.022241 0.0
0.561979 -0.018221 0.0
0.564850 -0.010273 0.0
0.565147 0.003788 0.0
1.000172 0.001599 0.0
1.000793 0.004585 0.0
1.001857 0.007169 0.0
1.003166 0.009330 0.0
1.004573 0.011126 0.0
1.005985 0.012635 0.0
1.007352 0.013931 0.0
1.008646 0.015072 0.0
1.009854 0.016102 0.0
1.010969 0.017054 0.0
1.011989 0.017949 0.0
1.012911 0.018806 0.0
1.013736 0.019635 0.0
1.014463 0.020448 0.0
1.015093 0.021253 0.0
1.015625 0.022060 0.0
1.016059 0.022880 0.0
1.016392 0.023724 0.0
1.016623 0.024607 0.0
1.016749 0.025545 0.0
1.016767 0.026558 0.0
1.016672 0.027671 0.0
1.016459 0.028909 0.0
1.016123 0.030307 0.0
1.015660 0.031902 0.0
1.015065 0.033743 0.0
1.014339 0.035890 0.0
1.013490 0.038421 0.0
1.012536 0.041437 0.0
1.011510 0.045079 0.0
1.010473 0.049538 0.0
1.009521 0.055084 0.0
1.008801 0.062100 0.0
1.008520 0.071145 0.0
1.008961 0.083039 0.0
1.010455 0.099013 0.0
1.013303 0.120940 0.0
1.017507 0.151731 0.0
1.022085 0.195989 0.0
1.023347 0.261145 0.0
1.010647 0.359348 0.0
0.955948 0.510255 0.0
0.788746 0.742921 0.0
0.332225 1.072318 0.0
0.500000 -1.072330 0.0
1.000000 0.000000 0.0
1.000000 0.000000 0.0
1.000000 0.000000 0.0
1.000000 0.000000 0.0
1.000000 0.000000 0.0
0.500000 0.092824 0.0
-0.047183 -0.092951 0.0
-0.143689 0.015509 0.0
-0.228408 0.106716 0.0
-0.299333 0.164086 0.0
-0.370724 0.198565 0.0
-0.441295 0.213813 0.0
-0.508634 0.213615 0.0
-0.571893 0.201568 0.0
-0.621428 0.167896 0.0
-0.645295 0.135285 0.0
-0.671934 0.156564 0.0
-0.722321 0.159366 0.0
-0.771219 0.124957 0.0
-0.797024 0.072483 0.0
-0.804254 0.035223 0.0
-0.805081 0.002371 0.0
-0.795376 -0.036823 0.0
-0.771296 -0.066919 0.0
-0.742299 -0.075279 0.0
-0.716379 -0.072675 0.0
-0.694290 -0.061199 0.0
-0.677526 -0.041033 0.0
-0.667943 -0.014463 0.0
-0.666320 0.015629 0.0
-0.672346 0.046826 0.0
-0.685022 0.077378 0.0
-0.703093 0.105949 0.0
-0.725218 0.131651 0.0
-0.750073 0.154016 0.0
-0.776439 0.172895 0.0
-0.803281 0.188364 0.0
-0.829792 0.200654 0.0
-0.855389 0.210082 0.0
-0.879707 0.216976 0.0
-0.902574 0.221650 0.0
-0.923971 0.224374 0.0
-0.943991 0.225369 0.0
-0.962796 0.224805 0.0
-0.980572 0.222807 0.0
-0.997500 0.219467 0.0
-1.013730 0.214851 0.0
-1.029366 0.209014 0.0
-1.044458 0.202006 0.0
-1.059005 0.193873 0.0
-1.072954 0.184658 0.0
-1.086211 0.174401 0.0
-1.098639 0.163139 0.0
-1.110071 0.150900 0.0
-1.120310 0.137713 0.0
-1.129132 0.123607 0.0
-1.136292 0.108620 0.0
-1.141532 0.092805 0.0
-1.144583 0.076242 0.0
-1.145185 0.059047 0.0
-1.143107 0.041379 0.0
-1.138173 0.023451 0.0
-1.130325 0.005531 0.0
-1.119851 -0.011993 0.0
-1.107118 -0.028153 0.0
-1.092201 -0.043542 0.0
-1.075102 -0.058252 0.0
-1.055840 -0.072391 0.0
-1.034403 -0.086068 0.0
-1.010757 -0.099386 0.0
-0.984845 -0.112415 0.0
-0.956606 -0.125175 0.0
-0.925989 -0.137625 0.0
-0.892990 -0.149654 0.0
-0.857665 -0.161118 0.0
-0.820129 -0.171882 0.0
-0.780544 -0.181802 0.0
-0.739140 -0.190743 0.0
-0.696170 -0.198684 0.0
-0.651841 -0.205655 0.0
-0.606360 -0.211584 0.0
-0.559998 -0.216431 0.0
-0.513002 -0.220335 0.0
-0.465575 -0.223362 0.0
-0.417858 -0.225689 0.0
-0.369836 -0.227424 0.0
-0.321600 -0.228154 0.0
-0.273389 -0.228066 0.0
-0.225358 -0.227476 0.0
-0.177650 -0.226471 0.0
-0.130385 -0.224845 0.0
-0.083758 -0.221714 0.0
-0.037828 -0.217775 0.0
0.007555 -0.213245 0.0
0.051346 -0.207652 0.0
0.092743 -0.201009 0.0
0.132110 -0.193505 0.0
0.169286 -0.185573 0.0
0.204030 -0.176954 0.0
0.236388 -0.167689 0.0
0.266336 -0.158168 0.0
0.293740 -0.148603 0.0
0.318505 -0.139163 0.0
0.340624 -0.129927 0.0
0.360165 -0.121042 0.0
0.377211 -0.112633 0.0
0.391894 -0.104761 0.0
0.404412 -0.097478 0.0
0.415003 -0.090860 0.0
0.423900 -0.085004 0.0
0.431313 -0.079978 0.0
0.437444 -0.075811 0.0
0.442493 -0.072497 0.0
0.446665 -0.070003 0.0
0.450164 -0.068270 0.0
0.453192 -0.067216 0.0
0.455943 -0.066735 0.0
0.458601 -0.066695 0.0
0.461332 -0.066938 0.0
0.464278 -0.067281 0.0
0.467546 -0.067525 0.0
0.471196 -0.067463 0.0
0.475232 -0.066905 0.0
0.479595 -0.065707 0.0
0.484175 -0.063796 0.0
0.488829 -0.061182 0.0
0.493408 -0.057958 0.0
0.497784 -0.054271 0.0
0.501865 -0.050287 0.0
0.505591 -0.046156 0.0
0.508924 -0.041989 0.0
0.511830 -0.037859 0.0
0.514267 -0.033823 0.0
0.516194 -0.029933 0.0
0.517576 -0.026253 0.0
0.518397 -0.022854 0.0
0.518665 -0.019812 0.0
0.518417 -0.017194 0.0
0.517704 -0.015052 0.0
0.516592 -0.013424 0.0
0.515150 -0.012332 0.0
0.513448 -0.011789 0.0
0.511552 -0.011802 0.0
0.509530 -0.012368 0.0
0.507444 -0.013470 0.0
0.505359 -0.015068 0.0
0.503337 -0.017077 0.0
0.501439 -0.019348 0.0
0.499722 -0.021641 0.0
0.498241 -0.023573 0.0
0.497031 -0.024537 0.0
0.496079 -0.023623 0.0
0.495268 -0.019580 0.0
0.494299 -0.010817 0.0
0.492663 0.005670 0.0
1.000110 0.001317 0.0
1.000527 0.003831 0.0
1.001281 0.006106 0.0
1.002262 0.008103 0.0
1.003371 0.009837 0.0
1.004533 0.011349 0.0
1.005697 0.012686 0.0
1.006830 0.013890 0.0
1.007912 0.014995 0.0
1.008930 0.016028 0.0
1.009876 0.017010 0.0
1.010745 0.017954 0.0
1.011535 0.018872 0.0
1.012244 0.019774 0.0
1.012872 0.020669 0.0
1.013418 0.021566 0.0
1.013884 0.022475 0.0
1.014270 0.023410 0.0
1.014576 0.024384 0.0
1.014803 0.025415 0.0
1.014952 0.026522 0.0
1.015022 0.027731 0.0
1.015016 0.029068 0.0
1.014937 0.030563 0.0
1.014791 0.032255 0.0
1.014590 0.034186 0.0
1.014354 0.036409 0.0
1.014119 0.038987 0.0
1.013938 0.042006 0.0
1.013902 0.045573 0.0
1.014148 0.049836 0.0
1.014888 0.054998 0.0
1.016442 0.061352 0.0
1.019292 0.069323 0.0
1.024152 0.079561 0.0
1.032065 0.093085 0.0
1.044522 0.111565 0.0
1.063581 0.137843 0.0
1.091896 0.176983 0.0
1.132349 0.238437 0.0
1.186279 0.340825 0.0
1.246245 0.523511 0.0
1.278624 0.864487 0.0
0.640678 1.789962 0.0
-1.842702 -0.702279 0.0
-3.654406 0.000000 0.0
-3.613252 0.000000 0.0
-3.593347 0.000000 0.0
-3.566042 0.000000 0.0
-3.512196 0.000000 0.0
-1.737953 0.022832 0.0
-0.085360 0.030324 0.0
-0.225613 0.119724 0.0
-0.323433 0.185040 0.0
-0.401464 0.234718 0.0
-0.468105 0.265964 0.0
-0.529041 0.277922 0.0
-0.587278 0.275082 0.0
-0.655450 0.271531 0.0
-0.710446 0.202464 0.0
-0.690647 0.104785 0.0
-0.685731 0.208788 0.0
-0.765611 0.237409 0.0
-0.843713 0.173915 0.0
-0.863961 0.069579 0.0
-0.853002 0.034397 0.0
-0.852912 0.003935 0.0
-0.839650 -0.061355 0.0
-0.796619 -0.109497 0.0
-0.750844 -0.107473 0.0
-0.716551 -0.100693 0.0
-0.686145 -0.085677 0.0
-0.661429 -0.058035 0.0
-0.646099 -0.022373 0.0
-0.640758 0.016576 0.0
-0.644302 0.055449 0.0
-0.655046 0.092175 0.0
-0.671136 0.125313 0.0
-0.690721 0.153997 0.0
-0.712080 0.177884 0.0
-0.733731 0.197044 0.0
-0.754504 0.211830 0.0
-0.773571 0.222766 0.0
-0.790442 0.230438 0.0
-0.804927 0.235424 0.0
-0.817092 0.238234 0.0
-0.827195 0.239289 0.0
-0.835622 0.238901 0.0
-0.842824 0.237278 0.0
-0.849251 0.234537 0.0
-0.855308 0.230723 0.0
-0.861317 0.225834 0.0
-0.867495 0.219846 0.0
-0.873956 0.212728 0.0
-0.880712 0.204454 0.0
-0.887689 0.195004 0.0
-0.894743 0.184366 0.0
-0.901676 0.172534 0.0
-0.908247 0.159508 0.0
-0.914192 0.145288 0.0
-0.919223 0.129885 0.0
-0.923046 0.113324 0.0
-0.925357 0.095651 0.0
-0.925860 0.076950 0.0
-0.924271 0.057352 0.0
-0.920328 0.037053 0.0
-0.913810 0.016325 0.0
-0.904483 -0.004517 0.0
-0.892907 -0.023994 0.0
-0.879571 -0.042220 0.0
-0.864324 -0.059639 0.0
-0.847218 -0.076360 0.0
-0.828227 -0.092536 0.0
-0.807289 -0.108297 0.0
-0.784319 -0.123773 0.0
-0.759209 -0.139050 0.0
-0.731842 -0.154146 0.0
-0.702115 -0.168997 0.0
-0.669995 -0.183401 0.0
-0.635562 -0.197129 0.0
-0.598948 -0.210021 0.0
-0.560316 -0.221880 0.0
-0.519957 -0.232429 0.0
-0.478215 -0.241710 0.0
-0.435291 -0.249881 0.0
-0.391374 -0.256755 0.0
-0.346762 -0.262234 0.0
-0.301667 -0.266624 0.0
-0.256249 -0.269918 0.0
-0.210663 -0.272436 0.0
-0.164948 -0.274413 0.0
-0.119166 -0.275183 0.0
-0.073325 -0.275088 0.0
-0.027221 -0.274589 0.0
0.018965 -0.273253 0.0
0.064315 -0.270679 0.0
0.108628 -0.266820 0.0
0.152146 -0.262116 0.0
0.194427 -0.256567 0.0
0.235484 -0.249178 0.0
0.275375 -0.240770 0.0
0.313658 -0.231393 0.0
0.349973 -0.221175 0.0
0.384034 -0.210158 0.0
0.415675 -0.198483 0.0
0.444755 -0.186402 0.0
0.471141 -0.174158 0.0
0.494737 -0.161969 0.0
0.515512 -0.150015 0.0
0.533495 -0.138477 0.0
0.548761 -0.127510 0.0
0.561429 -0.117236 0.0
0.571664 -0.107756 0.0
0.579657 -0.099165 0.0
0.585603 -0.091543 0.0
0.589696 -0.084946 0.0
0.592123 -0.079401 0.0
0.593066 -0.074900 0.0
0.592704 -0.071410 0.0
0.591214 -0.068872 0.0
0.588771 -0.067199 0.0
0.585548 -0.066280 0.0
0.581719 -0.065979 0.0
0.577462 -0.066127 0.0
0.572950 -0.066527 0.0
0.568356 -0.066953 0.0
0.563831 -0.067161 0.0
0.559500 -0.066910 0.0
0.555438 -0.066003 0.0
0.551677 -0.064319 0.0
0.548209 -0.061845 0.0
0.545008 -0.058673 0.0
0.542049 -0.054972 0.0
0.539320 -0.050938 0.0
0.536818 -0.046730 0.0
0.534519 -0.042449 0.0
0.532363 -0.038148 0.0
0.530255 -0.033863 0.0
0.528078 -0.029643 0.0
0.525721 -0.025568 0.0
0.523102 -0.021740 0.0
0.520177 -0.018270 0.0
0.516944 -0.015255 0.0
0.513430 -0.012765 0.0
0.509675 -0.010844 0.0
0.505719 -0.009514 0.0
0.501599 -0.008784 0.0
0.497341 -0.008653 0.0
0.492960 -0.009113 0.0
0.488466 -0.010144 0.0
0.483864 -0.011707 0.0
0.479159 -0.013712 0.0
0.474353 -0.016008 0.0
0.469441 -0.018353 0.0
0.464425 -0.020365 0.0