# vtk DataFile Version 3.0
Scalar Field
ASCII
DATASET RECTILINEAR_GRID
DIMENSIONS 200 50 1
X_COORDINATES 200 double
0.050000 0.150000 0.250000 0.350000 0.450000 0.550000 0.650000 0.750000 0.850000 0.950000 1.050000 1.150000 1.250000 1.350000 1.450000 1.550000 1.650000 1.750000 1.850000 1.950000 2.050000 2.150000 2.250000 2.350000 2.450000 2.550000 2.650000 2.750000 2.850000 2.950000 3.050000 3.150000 3.250000 3.350000 3.450000 3.550000 3.650000 3.750000 3.850000 3.950000 4.050000 4.150000 4.250000 4.350000 4.450000 4.550000 4.650000 4.750000 4.850000 4.950000 5.050000 5.150000 5.250000 5.350000 5.450000 5.550000 5.650000 5.750000 5.850000 5.950000 6.050000 6.150000 6.250000 6.350000 6.450000 6.550000 6.650000 6.750000 6.850000 6.950000 7.050000 7.150000 7.250000 7.350000 7.450000 7.550000 7.650000 7.750000 7.850000 7.950000 8.050000 8.150000 8.250000 8.350000 8.450000 8.550000 8.650000 8.750000 8.850000 8.950000 9.050000 9.150000 9.250000 9.350000 9.450000 9.550000 9.650000 9.750000 9.850000 9.950000 10.050000 10.150000 10.250000 10.350000 10.450000 10.550000 10.650000 10.750000 10.850000 10.950000 11.050000 11.150000 11.250000 11.350000 11.450000 11.550000 11.650000 11.750000 11.850000 11.950000 12.050000 12.150000 12.250000 12.350000 12.450000 12.550000 12.650000 12.750000 12.850000 12.950000 13.050000 13.150000 13.250000 13.350000 13.450000 13.550000 13.650000 13.750000 13.850000 13.950000 14.050000 14.150000 14.250000 14.350000 14.450000 14.550000 14.650000 14.750000 14.850000 14.950000 15.050000 15.150000 15.250000 15.350000 15.450000 15.550000 15.650000 15.750000 15.850000 15.950000 16.050000 16.150000 16.250000 16.350000 16.450000 16.550000 16.650000 16.750000 16.850000 16.950000 17.050000 17.150000 17.250000 17.350000 17.450000 17.550000 17.650000 17.750000 17.850000 17.950000 18.050000 18.150000 18.250000 18.350000 18.450000 18.550000 18.650000 18.750000 18.850000 18.950000 19.050000 19.150000 19.250000 19.350000 19.450000 19.550000 19.650000 19.750000 19.850000 19.950000 
Y_COORDINATES 50 double
0.050000 0.150000 0.250000 0.350000 0.450000 0.550000 0.650000 0.750000 0.850000 0.950000 1.050000 1.150000 1.250000 1.350000 1.450000 1.550000 1.650000 1.750000 1.850000 1.950000 2.050000 2.150000 2.250000 2.350000 2.450000 2.550000 2.650000 2.750000 2.850000 2.950000 3.050000 3.150000 3.250000 3.350000 3.450000 3.550000 3.650000 3.750000 3.850000 3.950000 4.050000 4.150000 4.250000 4.350000 4.450000 4.550000 4.650000 4.750000 4.850000 4.950000 
Z_COORDINATES 1 double
0.0
POINT_DATA 10000
SCALARS Skalarfeld double 1
LOOKUP_TABLE default
9.151621
9.139193
9.132109
9.127400
9.123922
9.121174
9.118901
9.116963
9.115275
9.113781
9.112445
9.111242
9.110156
9.109176
9.108294
9.107509
9.106819
9.106228
9.105740
9.105360
9.105098
9.104965
9.104973
9.105140
9.105487
9.106040
9.106830
9.107900
9.109299
9.111091
9.113356
9.116192
9.119720
9.124083
9.129444
9.135965
9.143770
9.152856
9.162952
9.173281
9.182312
9.186079
9.186939
9.203993
9.203993
0.000000
0.000000
0.000000
0.000000
0.000000
-3.256046
-3.256046
-3.260480
-3.267262
-3.273058
-3.281076
-3.295642
-3.315606
-3.340952
-3.372170
-3.410636
-3.458715
-3.519575
-3.596686
-3.693039
-3.810195
-3.947430
-4.101213
-4.265182
-4.430663
-4.587631
-4.725882
-4.836155
-4.910954
-4.944912
-4.934588
-4.877395
-4.773539
-4.626497
-4.441851
-4.226760
-3.989474
-3.738759
-3.483311
-3.231224
-2.989583
-2.764177
-2.559347
-2.377999
-2.221795
-2.091322
-1.985964
-1.904395
-1.844833
-1.804553
-1.780973
-1.770412
-1.769108
-1.778265
-1.794043
-1.813856
-1.835787
-1.858389
-1.880598
-1.901670
-1.921128
-1.938714
-1.954339
-1.968047
-1.979975
-1.990323
-1.999328
-2.007238
-2.014288
-2.020674
-2.026444
-2.031636
-2.036440
-2.041000
-2.045393
-2.049685
-2.053905
-2.058046
-2.062078
-2.065971
-2.069729
-2.073435
-2.077268
-2.081484
-2.086358
-2.092112
-2.098861
-2.106595
-2.115213
-2.124550
-2.134405
-2.144540
-2.154668
-2.164439
-2.173461
-2.181345
-2.187770
-2.192559
-2.195721
-2.197448
-2.198069
-2.197954
-2.197430
-2.196734
-2.196050
-2.195406
-2.194721
-2.193847
-2.192624
-2.190921
-2.188642
-2.185705
-2.182040
-2.177612
-2.172429
-2.166537
-2.160016
-2.152967
-2.145516
-2.137800
-2.129973
-2.122195
-2.114621
-2.107391
-2.100622
-2.094395
-2.088755
-2.083710
-2.079234
-2.075273
-2.071755
-2.068600
-2.065741
-2.063066
-2.060521
-2.058048
-2.055595
-2.053118
-2.050581
-2.047955
-2.045221
-2.042362
-2.039368
-2.036232
-2.032955
-2.029537
-2.025985
-2.022310
-2.018525
-2.014649
-2.010703
-2.006712
-2.002706
-1.998720
-1.994717
9.137554
9.133878
9.129700
9.126097
9.123108
9.120604
9.118469
9.116615
9.114981
9.113525
9.112215
9.111031
9.109957
9.108986
9.108109
9.107326
9.106635
9.106039
9.105543
9.105152
9.104874
9.104720
9.104701
9.104833
9.105135
9.105631
9.106348
9.107324
9.108602
9.110236
9.112295
9.114859
9.118031
9.121930
9.126690
9.132451
9.139330
9.147360
9.156382
9.165857
9.174448
9.180490
9.191100
9.215090
9.215090
0.000000
0.000000
0.000000
0.000000
0.000000
-3.254026
-3.254027
-3.258349
-3.264667
-3.270641
-3.279653
-3.294833
-3.315953
-3.342495
-3.374784
-3.414291
-3.463528
-3.525798
-3.604744
-3.703548
-3.823911
-3.965123
-4.123495
-4.292356
-4.462622
-4.623852
-4.765523
-4.878242
-4.954629
-4.989752
-4.981259
-4.924776
-4.820565
-4.672841
-4.487173
-4.270650
-4.031520
-3.778597
-3.520642
-3.265806
-3.021235
-2.792806
-2.584950
-2.400610
-2.241450
-2.108186
-2.000252
-1.916357
-1.855048
-1.813382
-1.788371
-1.775395
-1.774643
-1.783560
-1.799164
-1.818914
-1.840824
-1.863386
-1.885502
-1.906412
-1.925640
-1.942935
-1.958225
-1.971570
-1.983123
-1.993097
-2.001738
-2.009293
-2.015981
-2.021938
-2.027308
-2.032266
-2.036942
-2.041448
-2.045785
-2.050042
-2.054233
-2.058337
-2.062308
-2.066100
-2.069709
-2.073225
-2.076849
-2.080875
-2.085620
-2.091328
-2.098113
-2.105950
-2.114709
-2.124211
-2.134260
-2.144628
-2.155032
-2.165112
-2.174435
-2.182558
-2.189107
-2.193872
-2.196866
-2.198320
-2.198639
-2.198239
-2.197453
-2.196644
-2.195954
-2.195378
-2.194806
-2.194065
-2.192962
-2.191369
-2.189204
-2.186379
-2.182808
-2.178447
-2.173302
-2.167422
-2.160887
-2.153799
-2.146280
-2.138474
-2.130537
-2.122636
-2.114936
-2.107586
-2.100712
-2.094402
-2.088703
-2.083622
-2.079132
-2.075173
-2.071669
-2.068529
-2.065653
-2.063006
-2.060504
-2.058065
-2.055641
-2.053187
-2.050668
-2.048056
-2.045331
-2.042477
-2.039484
-2.036347
-2.033063
-2.029636
-2.026070
-2.022377
-2.018571
-2.014668
-2.010689
-2.006659
-2.002605
-1.998572
-1.994255
9.130264
9.128899
9.126527
9.124004
9.121638
9.119505
9.117599
9.115893
9.114358
9.112970
9.111707
9.110555
9.109503
9.108543
9.107670
9.106883
9.106181
9.105566
9.105040
9.104610
9.104281
9.104062
9.103961
9.103990
9.104162
9.104494
9.105003
9.105711
9.106641
9.107819
9.109275
9.111037
9.113135
9.115593
9.118429
9.121645
9.125223
9.129127
9.133355
9.138125
9.144525
9.156867
9.186580
9.241196
9.241196
0.000000
0.000000
0.000000
0.000000
0.000000
-3.247437
-3.247437
-3.252243
-3.258800
-3.267236
-3.279487
-3.297289
-3.320616
-3.348877
-3.382554
-3.423802
-3.475603
-3.541403
-3.625011
-3.729782
-3.857412
-4.006933
-4.174157
-4.351747
-4.529914
-4.697623
-4.844013
-4.959707
-5.037679
-5.073582
-5.065691
-5.008150
-4.903348
-4.754471
-4.566694
-4.347036
-4.103871
-3.846239
-3.583114
-3.322805
-3.072572
-2.838435
-2.624999
-2.435305
-2.271053
-2.133029
-2.020848
-1.933263
-1.869818
-1.823689
-1.796360
-1.783741
-1.783398
-1.792603
-1.808490
-1.828524
-1.850655
-1.873316
-1.895371
-1.916051
-1.934888
-1.951660
-1.966326
-1.978983
-1.989816
-1.999069
-2.007008
-2.013893
-2.019953
-2.025373
-2.030306
-2.034889
-2.039201
-2.043342
-2.047502
-2.051629
-2.055653
-2.059554
-2.063301
-2.066872
-2.070297
-2.073689
-2.077257
-2.081279
-2.086039
-2.091753
-2.098520
-2.106319
-2.115043
-2.124551
-2.134686
-2.145250
-2.155963
-2.166428
-2.176144
-2.184571
-2.191246
-2.195907
-2.198570
-2.199526
-2.199260
-2.198372
-2.197278
-2.196310
-2.195625
-2.195178
-2.194816
-2.194324
-2.193422
-2.192027
-2.190093
-2.187519
-2.184166
-2.179975
-2.174957
-2.169162
-2.162666
-2.155567
-2.147983
-2.140055
-2.131948
-2.123841
-2.115917
-2.108344
-2.101266
-2.094784
-2.088952
-2.083781
-2.079236
-2.075254
-2.071750
-2.068627
-2.065790
-2.063154
-2.060660
-2.058257
-2.055865
-2.053435
-2.050934
-2.048335
-2.045617
-2.042765
-2.039767
-2.036618
-2.033314
-2.029859
-2.026257
-2.022517
-2.018652
-2.014676
-2.010607
-2.006462
-2.002254
-1.997975
-1.993295
9.125579
9.124932
9.123508
9.121755
9.119936
9.118176
9.116524
9.114993
9.113580
9.112277
9.111074
9.109962
9.108936
9.107989
9.107118
9.106322
9.105601
9.104956
9.104388
9.103902
9.103500
9.103188
9.102972
9.102856
9.102848
9.102951
9.103169
9.103504
9.103949
9.104491
9.105100
9.105726
9.106282
9.106634
9.106577
9.105811
9.103925
9.100413
9.094818
9.087266
9.080084
9.081797
9.112406
9.193410
9.193409
0.000000
0.000000
0.000000
0.000000
0.000000
-3.241019
-3.241019
-3.245813
-3.253909
-3.266021
-3.282913
-3.304927
-3.331343
-3.361098
-3.395246
-3.437920
-3.492637
-3.562471
-3.651436
-3.763270
-3.899676
-4.059276
-4.237180
-4.425196
-4.612702
-4.788028
-4.940033
-5.059480
-5.139828
-5.177292
-5.170402
-5.114397
-5.010634
-4.861427
-4.671598
-4.448211
-4.199951
-3.936272
-3.666514
-3.399216
-3.141732
-2.900170
-2.679324
-2.482424
-2.311359
-2.166476
-2.047920
-1.952350
-1.883223
-1.835758
-1.807441
-1.794957
-1.795235
-1.805178
-1.821804
-1.842494
-1.865117
-1.888042
-1.910100
-1.930518
-1.948849
-1.964908
-1.978699
-1.990369
-2.000151
-2.008331
-2.015212
-2.021087
-2.026219
-2.030823
-2.035071
-2.039096
-2.042984
-2.046798
-2.050569
-2.054359
-2.058202
-2.061914
-2.065480
-2.068904
-2.072234
-2.075585
-2.079146
-2.083153
-2.087850
-2.093431
-2.100006
-2.107591
-2.116136
-2.125549
-2.135701
-2.146403
-2.157353
-2.168107
-2.178087
-2.186667
-2.193312
-2.197722
-2.199936
-2.200320
-2.199459
-2.197979
-2.196549
-2.195485
-2.194860
-2.194595
-2.194494
-2.194351
-2.193624
-2.192456
-2.190872
-2.188709
-2.185689
-2.181772
-2.176987
-2.171381
-2.165024
-2.157998
-2.150408
-2.142390
-2.134109
-2.125762
-2.117555
-2.109683
-2.102315
-2.095574
-2.089531
-2.084200
-2.079549
-2.075507
-2.071980
-2.068863
-2.066053
-2.063458
-2.061000
-2.058610
-2.056239
-2.053834
-2.051354
-2.048771
-2.046063
-2.043212
-2.040207
-2.037042
-2.033711
-2.030217
-2.026562
-2.022754
-2.018804
-2.014723
-2.010524
-2.006217
-2.001806
-1.997275
-1.992340
9.122114
9.121742
9.120822
9.119574
9.118176
9.116741
9.115331
9.113978
9.112696
9.111487
9.110351
9.109287
9.108290
9.107359
9.106491
9.105687
9.104944
9.104265
9.103649
9.103099
9.102616
9.102202
9.101858
9.101583
9.101376
9.101230
9.101135
9.101070
9.101001
9.100872
9.100593
9.100027
9.098960
9.097069
9.093865
9.088617
9.080242
9.067164
9.047168
9.017408
8.975156
8.921198
8.870617
8.874187
8.874187
0.000000
0.000000
0.000000
0.000000
0.000000
-3.239535
-3.239536
-3.243511
-3.253464
-3.269644
-3.291670
-3.318634
-3.348556
-3.378585
-3.410777
-3.454614
-3.512728
-3.585826
-3.678775
-3.796505
-3.940861
-4.110043
-4.298454
-4.497073
-4.694487
-4.878428
-5.037477
-5.162520
-5.247467
-5.288969
-5.285655
-5.234856
-5.134632
-4.986632
-4.795490
-4.568509
-4.314898
-4.044734
-3.767905
-3.493276
-3.228250
-2.978875
-2.750052
-2.545264
-2.366797
-2.207435
-2.078527
-1.977306
-1.903020
-1.852620
-1.822887
-1.810233
-1.811057
-1.821853
-1.839392
-1.860893
-1.884109
-1.907339
-1.929379
-1.949460
-1.967164
-1.982350
-1.995075
-2.005537
-2.014021
-2.020856
-2.026390
-2.030959
-2.034866
-2.038367
-2.041664
-2.044899
-2.048160
-2.051489
-2.054887
-2.058328
-2.061801
-2.065333
-2.068752
-2.072069
-2.075335
-2.078652
-2.082179
-2.086113
-2.090658
-2.095994
-2.102245
-2.109468
-2.117662
-2.126773
-2.136691
-2.147213
-2.158012
-2.168609
-2.178401
-2.186751
-2.193133
-2.197273
-2.199232
-2.199396
-2.198362
-2.196798
-2.195301
-2.194229
-2.193690
-2.193560
-2.193504
-2.193120
-2.192659
-2.191968
-2.190933
-2.189374
-2.186695
-2.183109
-2.178665
-2.173374
-2.167286
-2.160455
-2.152963
-2.144930
-2.136525
-2.127960
-2.119465
-2.111269
-2.103572
-2.096527
-2.090225
-2.084693
-2.079903
-2.075782
-2.072225
-2.069116
-2.066342
-2.063797
-2.061393
-2.059056
-2.056726
-2.054358
-2.051910
-2.049352
-2.046660
-2.043816
-2.040807
-2.037624
-2.034263
-2.030723
-2.027007
-2.023120
-2.019070
-2.014867
-2.010521
-2.006040
-2.001430
-1.996688
-1.991548
9.119344
9.119101
9.118463
9.117544
9.116454
9.115281
9.114083
9.112896
9.111740
9.110627
9.109562
9.108547
9.107583
9.106669
9.105805
9.104992
9.104228
9.103513
9.102848
9.102233
9.101666
9.101148
9.100674
9.100240
9.099837
9.099451
9.099056
9.098617
9.098076
9.097342
9.096280
9.094680
9.092223
9.088420
9.082515
9.073337
9.059032
9.036603
9.001014
8.943341
8.846565
8.675135
8.349083
7.968881
2.708645
-4.237181
-4.090303
-4.080807
-4.062067
-3.965728
-3.490249
-3.240897
-3.242796
-3.256468
-3.278063
-3.305876
-3.338352
-3.372417
-3.399864
-3.424612
-3.472125
-3.536214
-3.610148
-3.703634
-3.824518
-3.974312
-4.150764
-4.347799
-4.555839
-4.762950
-4.956431
-5.124526
-5.258010
-5.350943
-5.400049
-5.403825
-5.361776
-5.267654
-5.122579
-4.931193
-4.701213
-4.442555
-4.166123
-3.882541
-3.601173
-3.329531
-3.073381
-2.837712
-2.624785
-2.429674
-2.261803
-2.123545
-2.014710
-1.934252
-1.879596
-1.847302
-1.833433
-1.833932
-1.844897
-1.862803
-1.884660
-1.908080
-1.931272
-1.952991
-1.972463
-1.989295
-2.003389
-2.014853
-2.023930
-2.030946
-2.036266
-2.040270
-2.043331
-2.045793
-2.047957
-2.050062
-2.052278
-2.054704
-2.057375
-2.060272
-2.063338
-2.066492
-2.069724
-2.072993
-2.076203
-2.079391
-2.082640
-2.086073
-2.089852
-2.094151
-2.099132
-2.104928
-2.111623
-2.119247
-2.127772
-2.137096
-2.147015
-2.157199
-2.167178
-2.176387
-2.184246
-2.190289
-2.194281
-2.196283
-2.196637
-2.195880
-2.194606
-2.193335
-2.192394
-2.191889
-2.191729
-2.191713
-2.191676
-2.191614
-2.191362
-2.190562
-2.188837
-2.186489
-2.183380
-2.179460
-2.174618
-2.168926
-2.162405
-2.155108
-2.147141
-2.138675
-2.129938
-2.121192
-2.112699
-2.104693
-2.097354
-2.090798
-2.085069
-2.080146
-2.075954
-2.072383
-2.069305
-2.066591
-2.064124
-2.061803
-2.059547
-2.057292
-2.054986
-2.052591
-2.050075
-2.047413
-2.044586
-2.041579
-2.038382
-2.034991
-2.031403
-2.027619
-2.023644
-2.019484
-2.015148
-2.010646
-2.005988
-2.001182
-1.996237
-1.990900
9.117029
9.116856
9.116387
9.115684
9.114817
9.113848
9.112826
9.111783
9.110743
9.109721
9.108724
9.107759
9.106827
9.105932
9.105073
9.104251
9.103465
9.102715
9.102001
9.101321
9.100672
9.100052
9.099454
9.098870
9.098286
9.097680
9.097022
9.096263
9.095333
9.094124
9.092474
9.090136
9.086733
9.081685
9.074081
9.062468
9.044457
9.015966
8.969604
8.890832
8.747478
8.455436
7.748337
5.306970
-2.551591
-4.237181
-4.090303
-4.080807
-4.062067
-3.965728
-3.739601
-3.469020
-3.393598
-3.368589
-3.357311
-3.357071
-3.369093
-3.391564
-3.413925
-3.436262
-3.494031
-3.568911
-3.635521
-3.724075
-3.845403
-3.997072
-4.176853
-4.378868
-4.593516
-4.808927
-5.012407
-5.191753
-5.336992
-5.441696
-5.501932
-5.515472
-5.484933
-5.399005
-5.258495
-5.068219
-4.836344
-4.573560
-4.291726
-4.002317
-3.715396
-3.438875
-3.177853
-2.936006
-2.710513
-2.507916
-2.331803
-2.184938
-2.068332
-1.981380
-1.921799
-1.886046
-1.869841
-1.868708
-1.878401
-1.895193
-1.915991
-1.938354
-1.960450
-1.981000
-1.999204
-2.014667
-2.027304
-2.037248
-2.044767
-2.050198
-2.053916
-2.056309
-2.057767
-2.058663
-2.059335
-2.060067
-2.061071
-2.062473
-2.064317
-2.066577
-2.069173
-2.071999
-2.074947
-2.078006
-2.081084
-2.084168
-2.087308
-2.090595
-2.094155
-2.098132
-2.102673
-2.107907
-2.113932
-2.120795
-2.128486
-2.136918
-2.145901
-2.155132
-2.164195
-2.172600
-2.179854
-2.185569
-2.189543
-2.191820
-2.192670
-2.192522
-2.191856
-2.191095
-2.190517
-2.190234
-2.190211
-2.190338
-2.190494
-2.190571
-2.190395
-2.189745
-2.188450
-2.186497
-2.183706
-2.180022
-2.175519
-2.170166
-2.163919
-2.156790
-2.148866
-2.140321
-2.131408
-2.122421
-2.113656
-2.105377
-2.097790
-2.091029
-2.085151
-2.080140
-2.075923
-2.072380
-2.069375
-2.066764
-2.064416
-2.062219
-2.060082
-2.057931
-2.055719
-2.053404
-2.050952
-2.048337
-2.045538
-2.042542
-2.039336
-2.035916
-2.032277
-2.028421
-2.024351
-2.020073
-2.015596
-2.010929
-2.006085
-2.001075
-1.995917
-1.990361
9.115037
9.114906
9.114544
9.113988
9.113282
9.112470
9.111589
9.110669
9.109731
9.108790
9.107857
9.106938
9.106039
9.105161
9.104306
9.103475
9.102668
9.101884
9.101122
9.100380
9.099653
9.098937
9.098224
9.097503
9.096758
9.095964
9.095088
9.094080
9.092866
9.091339
9.089338
9.086624
9.082829
9.077388
9.069411
9.057460
9.039139
9.010289
8.963285
8.883142
8.737709
8.446239
7.785001
6.015801
-0.441862
-3.299080
-3.929420
-4.093128
-4.159148
-4.190509
-4.188988
-4.178969
-4.113569
-4.007354
-3.887775
-3.771101
-3.673147
-3.602775
-3.558260
-3.540738
-3.559606
-3.601497
-3.658621
-3.745017
-3.862651
-4.010475
-4.187561
-4.388925
-4.605204
-4.825544
-5.037956
-5.229782
-5.389191
-5.508759
-5.582884
-5.607566
-5.590187
-5.513810
-5.379525
-5.192332
-4.960576
-4.695569
-4.410158
-4.116608
-3.825790
-3.546840
-3.281664
-3.033769
-2.804363
-2.596753
-2.414520
-2.260903
-2.137788
-2.045172
-1.981055
-1.941820
-1.922854
-1.919237
-1.926348
-1.940265
-1.957933
-1.977094
-1.996120
-2.013856
-2.029527
-2.042712
-2.053281
-2.061337
-2.067106
-2.070886
-2.073009
-2.073828
-2.073710
-2.073029
-2.072151
-2.071404
-2.071051
-2.071263
-2.072117
-2.073596
-2.075610
-2.078028
-2.080706
-2.083521
-2.086433
-2.089378
-2.092374
-2.095481
-2.098789
-2.102412
-2.106475
-2.111098
-2.116379
-2.122376
-2.129097
-2.136473
-2.144353
-2.152484
-2.160524
-2.168073
-2.174731
-2.180176
-2.184233
-2.186912
-2.188400
-2.189013
-2.189113
-2.189028
-2.188987
-2.189100
-2.189370
-2.189730
-2.190082
-2.190310
-2.190269
-2.189802
-2.188772
-2.187082
-2.184615
-2.181292
-2.177061
-2.171833
-2.165661
-2.158497
-2.150409
-2.141605
-2.132378
-2.123065
-2.113994
-2.105453
-2.097660
-2.090756
-2.084799
-2.079773
-2.075599
-2.072152
-2.069282
-2.066833
-2.064659
-2.062635
-2.060658
-2.058654
-2.056571
-2.054365
-2.052000
-2.049450
-2.046694
-2.043717
-2.040508
-2.037061
-2.033371
-2.029439
-2.025268
-2.020864
-2.016236
-2.011392
-2.006348
-2.001118
-1.995724
-1.989912
9.113290
9.113186
9.112896
9.112441
9.111853
9.111160
9.110393
9.109574
9.108722
9.107853
9.106977
9.106101
9.105230
9.104368
9.103517
9.102678
9.101851
9.101034
9.100226
9.099425
9.098625
9.097821
9.097004
9.096162
9.095279
9.094331
9.093286
9.092099
9.090707
9.089019
9.086904
9.084169
9.080527
9.075541
9.068528
9.058392
9.043309
9.020127
8.983105
8.919041
8.796540
8.533578
7.861286
5.441021
-2.457192
-4.231146
-4.136945
-4.202440
-4.327008
-4.541794
-4.843677
-5.278953
-5.280169
-5.105129
-4.873576
-4.604569
-4.335668
-4.099650
-3.913280
-3.785862
-3.720533
-3.705886
-3.730036
-3.790356
-3.887467
-4.022350
-4.190036
-4.383039
-4.593227
-4.810984
-5.025322
-5.224977
-5.399508
-5.535939
-5.625936
-5.664215
-5.659821
-5.593514
-5.467691
-5.286697
-5.058451
-4.794529
-4.508814
-4.213697
-3.921783
-3.641100
-3.375519
-3.127508
-2.898048
-2.689182
-2.504181
-2.346706
-2.219429
-2.122991
-2.055692
-2.013841
-1.992488
-1.986259
-1.990111
-1.999887
-2.012570
-2.026219
-2.039685
-2.052277
-2.063465
-2.072926
-2.080462
-2.086088
-2.089876
-2.091988
-2.092634
-2.092059
-2.090549
-2.088433
-2.086075
-2.083841
-2.082052
-2.080948
-2.080657
-2.081197
-2.082491
-2.084390
-2.086714
-2.089286
-2.091987
-2.094753
-2.097578
-2.100488
-2.103540
-2.106814
-2.110410
-2.114431
-2.118968
-2.124085
-2.129804
-2.136090
-2.142837
-2.149860
-2.156904
-2.163657
-2.169800
-2.175065
-2.179285
-2.182429
-2.184600
-2.186003
-2.186896
-2.187527
-2.188085
-2.188680
-2.189339
-2.190029
-2.190673
-2.191167
-2.191385
-2.191192
-2.190457
-2.189056
-2.186858
-2.183741
-2.179595
-2.174329
-2.167947
-2.160506
-2.151974
-2.142647
-2.132895
-2.123110
-2.113656
-2.104837
-2.096872
-2.089892
-2.083942
-2.078991
-2.074949
-2.071678
-2.069017
-2.066798
-2.064860
-2.063059
-2.061289
-2.059477
-2.057563
-2.055497
-2.053245
-2.050779
-2.048080
-2.045132
-2.041925
-2.038452
-2.034710
-2.030699
-2.026421
-2.021883
-2.017092
-2.012060
-2.006798
-2.001326
-1.995668
-1.989556
9.111738
9.111652
9.111411
9.111030
9.110528
9.109926
9.109248
9.108511
9.107732
9.106924
9.106097
9.105259
9.104414
9.103566
9.102718
9.101870
9.101023
9.100176
9.099326
9.098470
9.097603
9.096720
9.095810
9.094864
9.093865
9.092794
9.091624
9.090321
9.088840
9.087120
9.085079
9.082605
9.079541
9.075664
9.070637
9.063938
9.054714
9.041481
9.020943
8.986111
8.921960
8.791606
8.503866
8.122820
2.832814
-4.231146
-4.136945
-4.202439
-4.327008
-4.541794
-5.586501
-6.329326
-6.092805
-6.002847
-5.839885
-5.533633
-5.155253
-4.776209
-4.436226
-4.163752
-3.973875
-3.865209
-3.827700
-3.850217
-3.922498
-4.036402
-4.185506
-4.363245
-4.561307
-4.770350
-4.980267
-5.180299
-5.359115
-5.504659
-5.608408
-5.664314
-5.663804
-5.613606
-5.501629
-5.332598
-5.113805
-4.856265
-4.573790
-4.280733
-3.990324
-3.711950
-3.450475
-3.207407
-2.982689
-2.777170
-2.593619
-2.436004
-2.307725
-2.210084
-2.141684
-2.098759
-2.076013
-2.067615
-2.068102
-2.073059
-2.079490
-2.085797
-2.091457
-2.096550
-2.100984
-2.104873
-2.108022
-2.110475
-2.111975
-2.112432
-2.111822
-2.110188
-2.107650
-2.104427
-2.100833
-2.097247
-2.094050
-2.091564
-2.090001
-2.089444
-2.089854
-2.091088
-2.092937
-2.095167
-2.097566
-2.100109
-2.102745
-2.105460
-2.108274
-2.111233
-2.114406
-2.117875
-2.121715
-2.125991
-2.130745
-2.135974
-2.141628
-2.147599
-2.153722
-2.159772
-2.165496
-2.170665
-2.175115
-2.178766
-2.181639
-2.183844
-2.185544
-2.186916
-2.188114
-2.189245
-2.190356
-2.191440
-2.192443
-2.193278
-2.193826
-2.193956
-2.193524
-2.192377
-2.190356
-2.187294
-2.183035
-2.177453
-2.170489
-2.162433
-2.153248
-2.143211
-2.132789
-2.122439
-2.112562
-2.103473
-2.095389
-2.088420
-2.082584
-2.077823
-2.074020
-2.071023
-2.068651
-2.066731
-2.065060
-2.063519
-2.062010
-2.060436
-2.058726
-2.056832
-2.054717
-2.052355
-2.049725
-2.046816
-2.043616
-2.040119
-2.036324
-2.032230
-2.027839
-2.023159
-2.018195
-2.012958
-2.007462
-2.001724
-1.995768
-1.989311
9.110346
9.110273
9.110068
9.109739
9.109301
9.108770
9.108162
9.107491
9.106772
9.106016
9.105230
9.104424
9.103601
9.102765
9.101919
9.101063
9.100198
9.099321
9.098432
9.097526
9.096599
9.095644
9.094654
9.093617
9.092522
9.091354
9.090093
9.088719
9.087208
9.085537
9.083680
9.081621
9.079355
9.076903
9.074330
9.071763
9.069413
9.067541
9.066398
9.065975
9.065118
9.060868
9.051367
9.056052
9.056052
0.000000
0.000000
0.000000
0.000000
0.000000
-6.231561
-6.231562
-6.296496
-6.428407
-6.461085
-6.226827
-5.843100
-5.412674
-4.972204
-4.574004
-4.258526
-4.042321
-3.923566
-3.890596
-3.927814
-4.019521
-4.152239
-4.315435
-4.500381
-4.698503
-4.900416
-5.095833
-5.273632
-5.422457
-5.532832
-5.596793
-5.604770
-5.566941
-5.469394
-5.314427
-5.108416
-4.861856
-4.588484
-4.303321
-4.020352
-3.750014
-3.497825
-3.264861
-3.049976
-2.852771
-2.675341
-2.521797
-2.396195
-2.300474
-2.233540
-2.191537
-2.168819
-2.159107
-2.156533
-2.156453
-2.155900
-2.153634
-2.149789
-2.145249
-2.140995
-2.137529
-2.135091
-2.133612
-2.132445
-2.131261
-2.129688
-2.127458
-2.124425
-2.120613
-2.116221
-2.111598
-2.107170
-2.103347
-2.100448
-2.098657
-2.098009
-2.098403
-2.099612
-2.101171
-2.103140
-2.105394
-2.107818
-2.110349
-2.112962
-2.115661
-2.118467
-2.121451
-2.124656
-2.128151
-2.131996
-2.136219
-2.140827
-2.145793
-2.151059
-2.156479
-2.161853
-2.166987
-2.171716
-2.175915
-2.179532
-2.182587
-2.185157
-2.187348
-2.189273
-2.191021
-2.192648
-2.194162
-2.195529
-2.196674
-2.197486
-2.197828
-2.197539
-2.196443
-2.194350
-2.191067
-2.186420
-2.180280
-2.172598
-2.163437
-2.153531
-2.142782
-2.131724
-2.120860
-2.110624
-2.101346
-2.093239
-2.086393
-2.080798
-2.076357
-2.072913
-2.070298
-2.068271
-2.066642
-2.065302
-2.064095
-2.062891
-2.061588
-2.060114
-2.058415
-2.056457
-2.054213
-2.051665
-2.048801
-2.045612
-2.042094
-2.038244
-2.034063
-2.029554
-2.024723
-2.019576
-2.014120
-2.008370
-2.002341
-1.996056
-1.989208
9.109090
9.109027
9.108847
9.108557
9.108168
9.107691
9.107137
9.106520
9.105850
9.105135
9.104385
9.103606
9.102801
9.101975
9.101130
9.100266
9.099383
9.098480
9.097555
9.096604
9.095622
9.094604
9.093542
9.092428
9.091252
9.090003
9.088672
9.087249
9.085734
9.084133
9.082479
9.080839
9.079348
9.078249
9.077961
9.079184
9.083034
9.091199
9.106404
9.133083
9.175910
9.240159
9.327593
9.428227
9.428227
0.000000
0.000000
0.000000
0.000000
0.000000
-6.105346
-6.105346
-6.210235
-6.392896
-6.670789
-6.576276
-6.263582
-5.883678
-5.404650
-4.917725
-4.497284
-4.180406
-3.977026
-3.880455
-3.874793
-3.940466
-4.058400
-4.212546
-4.390408
-4.581940
-4.777863
-4.968504
-5.143459
-5.292117
-5.404794
-5.472925
-5.488589
-5.455613
-5.371441
-5.230327
-5.038615
-4.806374
-4.546957
-4.275313
-4.005674
-3.749036
-3.511352
-3.293467
-3.093290
-2.909201
-2.742505
-2.597297
-2.478168
-2.387648
-2.324916
-2.286021
-2.264967
-2.255046
-2.250024
-2.245065
-2.237277
-2.225795
-2.211368
-2.195743
-2.181658
-2.170012
-2.161192
-2.154738
-2.150562
-2.147790
-2.145597
-2.143315
-2.140440
-2.136707
-2.132132
-2.126975
-2.121670
-2.116704
-2.112514
-2.109415
-2.107565
-2.106941
-2.106817
-2.107511
-2.108879
-2.110727
-2.112888
-2.115236
-2.117689
-2.120188
-2.122704
-2.125305
-2.127985
-2.130749
-2.133662
-2.136860
-2.140443
-2.144400
-2.148839
-2.153678
-2.158734
-2.163861
-2.168918
-2.173720
-2.178150
-2.182148
-2.185700
-2.188838
-2.191615
-2.194088
-2.196297
-2.198255
-2.199933
-2.201264
-2.202143
-2.202429
-2.201955
-2.200533
-2.197964
-2.194063
-2.188679
-2.181729
-2.173229
-2.163300
-2.152266
-2.140988
-2.129487
-2.118303
-2.107890
-2.098577
-2.090585
-2.083984
-2.078746
-2.074752
-2.071736
-2.069463
-2.067825
-2.066640
-2.065713
-2.064882
-2.064013
-2.063006
-2.061785
-2.060299
-2.058511
-2.056396
-2.053938
-2.051125
-2.047950
-2.044411
-2.040504
-2.036233
-2.031601
-2.026611
-2.021269
-2.015583
-2.009561
-2.003217
-1.996570
-1.989286
9.107953
9.107896
9.107736
9.107475
9.107123
9.106687
9.106177
9.105602
9.104971
9.104291
9.103570
9.102813
9.102024
9.101205
9.100360
9.099487
9.098588
9.097661
9.096704
9.095712
9.094682
9.093607
9.092483
9.091300
9.090053
9.088733
9.087338
9.085869
9.084339
9.082780
9.081260
9.079908
9.078949
9.078776
9.080045
9.083827
9.091822
9.106617
9.131868
9.172790
9.236256
9.325998
9.435924
9.538468
9.538468
0.000000
0.000000
0.000000
0.000000
0.000000
-5.926287
-5.926288
-6.064499
-6.265302
-6.517805
-6.498166
-6.321772
-6.199053
-5.691674
-5.140452
-4.640042
-4.238754
-3.957287
-3.797286
-3.746553
-3.784729
-3.888980
-4.038311
-4.215614
-4.407587
-4.603390
-4.793158
-4.967096
-5.115452
-5.229081
-5.299907
-5.321532
-5.289049
-5.214051
-5.084948
-4.907571
-4.691550
-4.449621
-4.196130
-3.944943
-3.707052
-3.488535
-3.290040
-3.108704
-2.941812
-2.789845
-2.656753
-2.547526
-2.465195
-2.409185
-2.375444
-2.357646
-2.348687
-2.342014
-2.332659
-2.317864
-2.297218
-2.272245
-2.245436
-2.220851
-2.200246
-2.184409
-2.173193
-2.165904
-2.161625
-2.159228
-2.157510
-2.155515
-2.152624
-2.148601
-2.143567
-2.137911
-2.132163
-2.126868
-2.122487
-2.119347
-2.116779
-2.115241
-2.114779
-2.115247
-2.116461
-2.118222
-2.120341
-2.122661
-2.125060
-2.127426
-2.129703
-2.131889
-2.133978
-2.136049
-2.138236
-2.140715
-2.143702
-2.147204
-2.151304
-2.156041
-2.161152
-2.166610
-2.172088
-2.177431
-2.182500
-2.187186
-2.191425
-2.195196
-2.198503
-2.201353
-2.203741
-2.205637
-2.206974
-2.207655
-2.207548
-2.206494
-2.204320
-2.200855
-2.195953
-2.189521
-2.181551
-2.172144
-2.161518
-2.150013
-2.138063
-2.126295
-2.115038
-2.104696
-2.095542
-2.087832
-2.081590
-2.076700
-2.072999
-2.070388
-2.068663
-2.067566
-2.066877
-2.066401
-2.065972
-2.065459
-2.064761
-2.063806
-2.062541
-2.060931
-2.058952
-2.056589
-2.053830
-2.050671
-2.047108
-2.043142
-2.038778
-2.034016
-2.028861
-2.023316
-2.017386
-2.011078
-2.004400
-1.997363
-1.989600
9.106922
9.106870
9.106724
9.106486
9.106162
9.105758
9.105282
9.104740
9.104140
9.103489
9.102792
9.102052
9.101275
9.100462
9.099616
9.098736
9.097822
9.096873
9.095886
9.094858
9.093784
9.092660
9.091479
9.090235
9.088922
9.087536
9.086075
9.084546
9.082968
9.081382
9.079871
9.078579
9.077763
9.077857
9.079583
9.084117
9.093335
9.110117
9.138648
9.184411
9.252753
9.345735
9.454597
9.550552
9.550551
0.000000
0.000000
0.000000
0.000000
0.000000
-5.810604
-5.810604
-5.977328
-6.173347
-6.352352
-6.402144
-6.372005
-6.235457
-5.818300
-5.224417
-4.672458
-4.206078
-3.856411
-3.637004
-3.542724
-3.554637
-3.647356
-3.795487
-3.977279
-4.175580
-4.377039
-4.570698
-4.746808
-4.896312
-5.010908
-5.083308
-5.107516
-5.077967
-5.006392
-4.887284
-4.723812
-4.525096
-4.303065
-4.071117
-3.842279
-3.627030
-3.431228
-3.255271
-3.095680
-2.948825
-2.814421
-2.696186
-2.599384
-2.527452
-2.480027
-2.452976
-2.439689
-2.432716
-2.425240
-2.412213
-2.391068
-2.361899
-2.327036
-2.290110
-2.255223
-2.225874
-2.203287
-2.187506
-2.177689
-2.172491
-2.170545
-2.170113
-2.169772
-2.168525
-2.165851
-2.161685
-2.156325
-2.150293
-2.144199
-2.138641
-2.133605
-2.129144
-2.125889
-2.123855
-2.123000
-2.123208
-2.124299
-2.126041
-2.128182
-2.130484
-2.132766
-2.134780
-2.136502
-2.137897
-2.139094
-2.140312
-2.141805
-2.143816
-2.146500
-2.149962
-2.154217
-2.159301
-2.164932
-2.171100
-2.177464
-2.183761
-2.189752
-2.195261
-2.200171
-2.204416
-2.207953
-2.210749
-2.212758
-2.213917
-2.214141
-2.213319
-2.211330
-2.208045
-2.203351
-2.197173
-2.189497
-2.180395
-2.170036
-2.158688
-2.146709
-2.134537
-2.122667
-2.111478
-2.101276
-2.092381
-2.084914
-2.078973
-2.074525
-2.071414
-2.069409
-2.068258
-2.067706
-2.067520
-2.067497
-2.067474
-2.067319
-2.066934
-2.066246
-2.065206
-2.063777
-2.061935
-2.059667
-2.056963
-2.053817
-2.050229
-2.046200
-2.041737
-2.036840
-2.031512
-2.025758
-2.019577
-2.012973
-2.005946
-1.998498
-1.990220
9.105986
9.105939
9.105803
9.105582
9.105280
9.104901
9.104451
9.103936
9.103362