# vtk DataFile Version 3.0
Vector Field
ASCII
DATASET RECTILINEAR_GRID
DIMENSIONS 200 50 1
X_COORDINATES 200 double
0.050000 0.150000 0.250000 0.350000 0.450000 0.550000 0.650000 0.750000 0.850000 0.950000 1.050000 1.150000 1.250000 1.350000 1.450000 1.550000 1.650000 1.750000 1.850000 1.950000 2.050000 2.150000 2.250000 2.350000 2.450000 2.550000 2.650000 2.750000 2.850000 2.950000 3.050000 3.150000 3.250000 3.350000 3.450000 3.550000 3.650000 3.750000 3.850000 3.950000 4.050000 4.150000 4.250000 4.350000 4.450000 4.550000 4.650000 4.750000 4.850000 4.950000 5.050000 5.150000 5.250000 5.350000 5.450000 5.550000 5.650000 5.750000 5.850000 5.950000 6.050000 6.150000 6.250000 6.350000 6.450000 6.550000 6.650000 6.750000 6.850000 6.950000 7.050000 7.150000 7.250000 7.350000 7.450000 7.550000 7.650000 7.750000 7.850000 7.950000 8.050000 8.150000 8.250000 8.350000 8.450000 8.550000 8.650000 8.750000 8.850000 8.950000 9.050000 9.150000 9.250000 9.350000 9.450000 9.550000 9.650000 9.750000 9.850000 9.950000 10.050000 10.150000 10.250000 10.350000 10.450000 10.550000 10.650000 10.750000 10.850000 10.950000 11.050000 11.150000 11.250000 11.350000 11.450000 11.550000 11.650000 11.750000 11.850000 11.950000 12.050000 12.150000 12.250000 12.350000 12.450000 12.550000 12.650000 12.750000 12.850000 12.950000 13.050000 13.150000 13.250000 13.350000 13.450000 13.550000 13.650000 13.750000 13.850000 13.950000 14.050000 14.150000 14.250000 14.350000 14.450000 14.550000 14.650000 14.750000 14.850000 14.950000 15.050000 15.150000 15.250000 15.350000 15.450000 15.550000 15.650000 15.750000 15.850000 15.950000 16.050000 16.150000 16.250000 16.350000 16.450000 16.550000 16.650000 16.750000 16.850000 16.950000 17.050000 17.150000 17.250000 17.350000 17.450000 17.550000 17.650000 17.750000 17.850000 17.950000 18.050000 18.150000 18.250000 18.350000 18.450000 18.550000 18.650000 18.750000 18.850000 18.950000 19.050000 19.150000 19.250000 19.350000 19.450000 19.550000 19.650000 19.750000 19.850000 19.950000 
Y_COORDINATES 50 double
0.050000 0.150000 0.250000 0.350000 0.450000 0.550000 0.650000 0.750000 0.850000 0.950000 1.050000 1.150000 1.250000 1.350000 1.450000 1.550000 1.650000 1.750000 1.850000 1.950000 2.050000 2.150000 2.250000 2.350000 2.450000 2.550000 2.650000 2.750000 2.850000 2.950000 3.050000 3.150000 3.250000 3.350000 3.450000 3.550000 3.650000 3.750000 3.850000 3.950000 4.050000 4.150000 4.250000 4.350000 4.450000 4.550000 4.650000 4.750000 4.850000 4.950000 
Z_COORDINATES 1 double
0.0
POINT_DATA 10000
VECTORS Vektorfeld double
0.996416 0.003583 0.0
0.986625 0.006208 0.0
0.973093 0.007324 0.0
0.957904 0.007865 0.0
0.941886 0.008153 0.0
0.925419 0.008313 0.0
0.908704 0.008402 0.0
0.891856 0.008446 0.0
0.874948 0.008461 0.0
0.858031 0.008456 0.0
0.841138 0.008437 0.0
0.824291 0.008409 0.0
0.807506 0.008376 0.0
0.790789 0.008341 0.0
0.774140 0.008308 0.0
0.757554 0.008278 0.0
0.741023 0.008254 0.0
0.724532 0.008237 0.0
0.708064 0.008230 0.0
0.691599 0.008235 0.0
0.675111 0.008253 0.0
0.658572 0.008286 0.0
0.641947 0.008339 0.0
0.625191 0.008416 0.0
0.608251 0.008523 0.0
0.591058 0.008669 0.0
0.573525 0.008865 0.0
0.555535 0.009125 0.0
0.536939 0.009471 0.0
0.517539 0.009930 0.0
0.497070 0.010539 0.0
0.475182 0.011349 0.0
0.451406 0.012427 0.0
0.425114 0.013865 0.0
0.395472 0.015778 0.0
0.361381 0.018313 0.0
0.321434 0.021634 0.0
0.273906 0.025895 0.0
0.216856 0.031155 0.0
0.148484 0.037217 0.0
0.067782 0.043485 0.0
-0.021081 0.045378 0.0
-0.084058 0.017599 0.0
-0.050829 -0.050829 0.0
0.500000 0.050822 0.0
1.000000 0.000000 0.0
1.000000 0.000000 0.0
1.000000 0.000000 0.0
1.000000 0.000000 0.0
1.000000 0.000000 0.0
0.500000 0.042786 0.0
0.042809 -0.042809 0.0
0.110175 -0.024556 0.0
0.143610 -0.008878 0.0
0.152518 -0.000030 0.0
0.147676 0.004872 0.0
0.137379 0.005425 0.0
0.131712 0.000243 0.0
0.141675 -0.010206 0.0
0.167604 -0.015722 0.0
0.183041 0.000285 0.0
0.158602 0.024154 0.0
0.095068 0.039381 0.0
0.007094 0.048592 0.0
-0.096134 0.054636 0.0
-0.210431 0.059661 0.0
-0.331976 0.061883 0.0
-0.454427 0.060568 0.0
-0.570704 0.055709 0.0
-0.674260 0.047847 0.0
-0.759987 0.037880 0.0
-0.824739 0.026872 0.0
-0.867454 0.015843 0.0
-0.888913 0.005616 0.0
-0.891261 -0.003268 0.0
-0.877212 -0.010781 0.0
-0.850301 -0.016131 0.0
-0.814792 -0.019378 0.0
-0.774594 -0.020820 0.0
-0.732978 -0.020796 0.0
-0.692572 -0.019610 0.0
-0.655430 -0.017532 0.0
-0.623104 -0.014795 0.0
-0.596694 -0.011615 0.0
-0.576890 -0.008190 0.0
-0.563996 -0.004704 0.0
-0.557957 -0.001335 0.0
-0.558283 0.001662 0.0
-0.564144 0.004198 0.0
-0.574716 0.006374 0.0
-0.589294 0.008205 0.0
-0.607187 0.009688 0.0
-0.627695 0.010820 0.0
-0.650121 0.011605 0.0
-0.673783 0.012058 0.0
-0.698044 0.012203 0.0
-0.722319 0.012073 0.0
-0.746096 0.011705 0.0
-0.768935 0.011135 0.0
-0.790467 0.010397 0.0
-0.810384 0.009520 0.0
-0.828431 0.008527 0.0
-0.844392 0.007434 0.0
-0.858081 0.006255 0.0
-0.869333 0.004997 0.0
-0.877991 0.003661 0.0
-0.883912 0.002260 0.0
-0.886971 0.000798 0.0
-0.887083 -0.000686 0.0
-0.884207 -0.002189 0.0
-0.878351 -0.003667 0.0
-0.869584 -0.005100 0.0
-0.858014 -0.006471 0.0
-0.843780 -0.007763 0.0
-0.827058 -0.008959 0.0
-0.808061 -0.010038 0.0
-0.787040 -0.010982 0.0
-0.764284 -0.011773 0.0
-0.740115 -0.012397 0.0
-0.714874 -0.012844 0.0
-0.688923 -0.013108 0.0
-0.662627 -0.013188 0.0
-0.636351 -0.013088 0.0
-0.610447 -0.012816 0.0
-0.585244 -0.012387 0.0
-0.561047 -0.011810 0.0
-0.538132 -0.011106 0.0
-0.516720 -0.010306 0.0
-0.496968 -0.009447 0.0
-0.478954 -0.008568 0.0
-0.462683 -0.007703 0.0
-0.448099 -0.006881 0.0
-0.435088 -0.006130 0.0
-0.423477 -0.005481 0.0
-0.413033 -0.004963 0.0
-0.403456 -0.004613 0.0
-0.394372 -0.004471 0.0
-0.385336 -0.004565 0.0
-0.375880 -0.004891 0.0
-0.365565 -0.005423 0.0
-0.354014 -0.006128 0.0
-0.340916 -0.006970 0.0
-0.326026 -0.007920 0.0
-0.309137 -0.008970 0.0
-0.290038 -0.010130 0.0
-0.268544 -0.011364 0.0
-0.244635 -0.012545 0.0
-0.218487 -0.013603 0.0
-0.190380 -0.014504 0.0
-0.160610 -0.015267 0.0
-0.129316 -0.016027 0.0
-0.096780 -0.016508 0.0
-0.063577 -0.016695 0.0
-0.030244 -0.016637 0.0
0.002659 -0.016266 0.0
0.034659 -0.015734 0.0
0.065531 -0.015137 0.0
0.095111 -0.014443 0.0
0.123208 -0.013653 0.0
0.149644 -0.012783 0.0
0.174279 -0.011852 0.0
0.197012 -0.010882 0.0
0.217790 -0.009896 0.0
0.236603 -0.008917 0.0
0.253487 -0.007967 0.0
0.268518 -0.007064 0.0
0.281810 -0.006228 0.0
0.293510 -0.005473 0.0
0.303795 -0.004812 0.0
0.312861 -0.004255 0.0
0.320924 -0.003808 0.0
0.328210 -0.003477 0.0
0.334950 -0.003262 0.0
0.341373 -0.003161 0.0
0.347702 -0.003167 0.0
0.354140 -0.003271 0.0
0.360872 -0.003461 0.0
0.368051 -0.003718 0.0
0.375794 -0.004025 0.0
0.384178 -0.004359 0.0
0.393232 -0.004695 0.0
0.402938 -0.005010 0.0
0.413228 -0.005280 0.0
0.423990 -0.005482 0.0
0.435072 -0.005599 0.0
0.446288 -0.005617 0.0
0.457435 -0.005529 0.0
0.468297 -0.005333 0.0
0.478664 -0.005034 0.0
0.488337 -0.004640 0.0
0.497140 -0.004163 0.0
0.504923 -0.003619 0.0
0.511570 -0.003027 0.0
0.517008 -0.002411 0.0
0.521219 -0.001800 0.0
0.524253 -0.001235 0.0
0.526256 -0.000767 0.0
0.527493 -0.000470 0.0
0.528427 -0.000465 0.0
0.530407 -0.001515 0.0
1.001712 0.005455 0.0
1.005183 0.010657 0.0
1.008166 0.013423 0.0
1.010067 0.015055 0.0
1.010942 0.016106 0.0
1.010938 0.016831 0.0
1.010179 0.017358 0.0
1.008762 0.017755 0.0
1.006763 0.018060 0.0
1.004238 0.018300 0.0
1.001232 0.018492 0.0
0.997781 0.018652 0.0
0.993909 0.018790 0.0
0.989635 0.018918 0.0
0.984971 0.019044 0.0
0.979923 0.019175 0.0
0.974491 0.019319 0.0
0.968671 0.019482 0.0
0.962455 0.019670 0.0
0.955829 0.019887 0.0
0.948776 0.020141 0.0
0.941273 0.020440 0.0
0.933291 0.020794 0.0
0.924791 0.021218 0.0
0.915721 0.021731 0.0
0.906017 0.022359 0.0
0.895590 0.023135 0.0
0.884327 0.024107 0.0
0.872075 0.025337 0.0
0.858631 0.026908 0.0
0.843724 0.028936 0.0
0.826989 0.031575 0.0
0.807931 0.035036 0.0
0.785877 0.039601 0.0
0.759917 0.045644 0.0
0.728818 0.053636 0.0
0.690937 0.064138 0.0
0.644137 0.077720 0.0
0.585784 0.094733 0.0
0.513044 0.114751 0.0
0.424355 0.135341 0.0
0.321677 0.145062 0.0
0.200445 0.102125 0.0
0.066760 -0.034898 0.0
0.500000 0.034853 0.0
1.000000 0.000000 0.0
1.000000 0.000000 0.0
1.000000 0.000000 0.0
1.000000 0.000000 0.0
1.000000 0.000000 0.0
0.500000 0.120692 0.0
0.035114 -0.120733 0.0
0.092130 -0.071014 0.0
0.122900 -0.026625 0.0
0.135125 -0.003416 0.0
0.132661 0.015562 0.0
0.114304 0.023387 0.0
0.082196 0.020056 0.0
0.031520 0.010693 0.0
-0.039380 0.008350 0.0
-0.115801 0.037197 0.0
-0.187908 0.083788 0.0
-0.265897 0.121269 0.0
-0.359224 0.148005 0.0
-0.467968 0.167196 0.0
-0.587454 0.180884 0.0
-0.711065 0.185816 0.0
-0.832291 0.180313 0.0
-0.944465 0.164415 0.0
-1.041434 0.139666 0.0
-1.118354 0.108708 0.0
-1.172320 0.074762 0.0
-1.202703 0.041050 0.0
-1.211091 0.010256 0.0
-1.200780 -0.015871 0.0
-1.176975 -0.036031 0.0
-1.145027 -0.049741 0.0
-1.108651 -0.057653 0.0
-1.070639 -0.060755 0.0
-1.033090 -0.060025 0.0
-0.997566 -0.056311 0.0
-0.965202 -0.050337 0.0
-0.936791 -0.042727 0.0
-0.912841 -0.034042 0.0
-0.893620 -0.024789 0.0
-0.879190 -0.015429 0.0
-0.869461 -0.006378 0.0
-0.864369 0.001940 0.0
-0.863886 0.009297 0.0
-0.867627 0.015588 0.0
-0.874875 0.020816 0.0
-0.884877 0.024971 0.0
-0.896890 0.028058 0.0
-0.910208 0.030111 0.0
-0.924187 0.031193 0.0
-0.938253 0.031393 0.0
-0.951910 0.030815 0.0
-0.964738 0.029568 0.0
-0.976384 0.027757 0.0
-0.986550 0.025472 0.0
-0.994980 0.022792 0.0
-1.001454 0.019776 0.0
-1.005782 0.016473 0.0
-1.007793 0.012918 0.0
-1.007334 0.009128 0.0
-1.004247 0.005101 0.0
-0.998446 0.000939 0.0
-0.990053 -0.003215 0.0
-0.979241 -0.007372 0.0
-0.966103 -0.011517 0.0
-0.950706 -0.015593 0.0
-0.933094 -0.019553 0.0
-0.913328 -0.023353 0.0
-0.891501 -0.026942 0.0
-0.867736 -0.030266 0.0
-0.842199 -0.033265 0.0
-0.815092 -0.035883 0.0
-0.786655 -0.038065 0.0
-0.757158 -0.039771 0.0
-0.726894 -0.040973 0.0
-0.696170 -0.041654 0.0
-0.665299 -0.041809 0.0
-0.634591 -0.041450 0.0
-0.604341 -0.040608 0.0
-0.574815 -0.039324 0.0
-0.546267 -0.037617 0.0
-0.518933 -0.035548 0.0
-0.493002 -0.033205 0.0
-0.468606 -0.030696 0.0
-0.445804 -0.028135 0.0
-0.424597 -0.025614 0.0
-0.404936 -0.023214 0.0
-0.386717 -0.021027 0.0
-0.369771 -0.019141 0.0
-0.353876 -0.017643 0.0
-0.338749 -0.016637 0.0
-0.324041 -0.016241 0.0
-0.309333 -0.016539 0.0
-0.294202 -0.017504 0.0
-0.278260 -0.019066 0.0
-0.261146 -0.021149 0.0
-0.242522 -0.023671 0.0
-0.222111 -0.026520 0.0
-0.199693 -0.029676 0.0
-0.175060 -0.033155 0.0
-0.148014 -0.036879 0.0
-0.118601 -0.040352 0.0
-0.087028 -0.043516 0.0
-0.053501 -0.046225 0.0
-0.018383 -0.048435 0.0
0.017631 -0.050167 0.0
0.054066 -0.051338 0.0
0.090865 -0.051868 0.0
0.127821 -0.051754 0.0
0.164688 -0.050918 0.0
0.201181 -0.049576 0.0
0.236900 -0.047886 0.0
0.271475 -0.045850 0.0
0.304633 -0.043501 0.0
0.336155 -0.040894 0.0
0.365871 -0.038093 0.0
0.393663 -0.035166 0.0
0.419459 -0.032185 0.0
0.443235 -0.029218 0.0
0.465015 -0.026329 0.0
0.484864 -0.023581 0.0
0.502888 -0.021028 0.0
0.519232 -0.018717 0.0
0.534072 -0.016691 0.0
0.547611 -0.014981 0.0
0.560079 -0.013612 0.0
0.571719 -0.012600 0.0
0.582788 -0.011949 0.0
0.593547 -0.011657 0.0
0.604255 -0.011707 0.0
0.615161 -0.012075 0.0
0.626493 -0.012721 0.0
0.638455 -0.013598 0.0
0.651214 -0.014648 0.0
0.664897 -0.015803 0.0
0.679581 -0.016989 0.0
0.695290 -0.018131 0.0
0.711993 -0.019152 0.0
0.729604 -0.019983 0.0
0.747985 -0.020560 0.0
0.766947 -0.020835 0.0
0.786264 -0.020774 0.0
0.805675 -0.020361 0.0
0.824897 -0.019595 0.0
0.843635 -0.018490 0.0
0.861596 -0.017076 0.0
0.878501 -0.015394 0.0
0.894098 -0.013497 0.0
0.908175 -0.011456 0.0
0.920570 -0.009361 0.0
0.931184 -0.007323 0.0
0.939987 -0.005485 0.0
0.947043 -0.004044 0.0
0.952526 -0.003307 0.0
0.956444 -0.004572 0.0
1.000667 0.003076 0.0
1.002514 0.007718 0.0
1.004938 0.010955 0.0
1.007321 0.013241 0.0
1.009445 0.014919 0.0
1.011262 0.016206 0.0
1.012775 0.017230 0.0
1.014005 0.018070 0.0
1.014971 0.018778 0.0
1.015690 0.019387 0.0
1.016177 0.019924 0.0
1.016438 0.020410 0.0
1.016479 0.020863 0.0
1.016299 0.021299 0.0
1.015894 0.021731 0.0
1.015257 0.022172 0.0
1.014378 0.022633 0.0
1.013243 0.023124 0.0
1.011835 0.023652 0.0
1.010136 0.024229 0.0
1.008122 0.024865 0.0
1.005769 0.025571 0.0
1.003047 0.026366 0.0
0.999922 0.027272 0.0
0.996352 0.028317 0.0
0.992287 0.029542 0.0
0.987667 0.030999 0.0
0.982412 0.032761 0.0
0.976425 0.034922 0.0
0.969576 0.037615 0.0
0.961693 0.041018 0.0
0.952545 0.045376 0.0
0.941812 0.051026 0.0
0.929047 0.058429 0.0
0.913609 0.068214 0.0
0.894561 0.081213 0.0
0.870512 0.098492 0.0
0.839367 0.121311 0.0
0.797956 0.150906 0.0
0.741489 0.187784 0.0
0.662797 0.229689 0.0
0.550459 0.265730 0.0
0.385612 0.267537 0.0
0.143562 0.175424 0.0
0.500000 -0.175527 0.0
1.000000 0.000000 0.0
1.000000 0.000000 0.0
1.000000 0.000000 0.0
1.000000 0.000000 0.0
1.000000 0.000000 0.0
0.500000 0.173140 0.0
0.017286 -0.173134 0.0
0.041920 -0.100263 0.0
0.036713 -0.022938 0.0
-0.005637 0.023024 0.0
-0.064285 0.050233 0.0
-0.122389 0.065177 0.0
-0.180783 0.068768 0.0
-0.236413 0.068287 0.0
-0.288149 0.073391 0.0
-0.341447 0.101874 0.0
-0.400726 0.150497 0.0
-0.468259 0.200082 0.0
-0.547514 0.241775 0.0
-0.639450 0.274105 0.0
-0.740926 0.294938 0.0
-0.846235 0.300681 0.0
-0.948736 0.289174 0.0
-1.041608 0.260600 0.0
-1.118676 0.217519 0.0
-1.175323 0.164422 0.0
-1.209228 0.106920 0.0
-1.220619 0.050665 0.0
-1.211916 0.000327 0.0
-1.188259 -0.039911 0.0
-1.155605 -0.068451 0.0
-1.118287 -0.086586 0.0
-1.079353 -0.096117 0.0
-1.040802 -0.098854 0.0
-1.003922 -0.096355 0.0
-0.969549 -0.089877 0.0
-0.938240 -0.080444 0.0
-0.910356 -0.068916 0.0
-0.886108 -0.056051 0.0
-0.865579 -0.042529 0.0
-0.848742 -0.028956 0.0
-0.835476 -0.015848 0.0
-0.825574 -0.003584 0.0
-0.818803 0.007567 0.0
-0.814984 0.017240 0.0
-0.813774 0.025203 0.0
-0.814637 0.031449 0.0
-0.817053 0.036010 0.0
-0.820544 0.038969 0.0
-0.824681 0.040450 0.0
-0.829085 0.040605 0.0
-0.833422 0.039597 0.0
-0.837396 0.037589 0.0
-0.840741 0.034727 0.0
-0.843210 0.031137 0.0
-0.844578 0.026925 0.0
-0.844638 0.022177 0.0
-0.843204 0.016966 0.0
-0.840110 0.011343 0.0
-0.835202 0.005335 0.0
-0.828453 -0.000942 0.0
-0.819995 -0.007278 0.0
-0.809769 -0.013617 0.0
-0.797583 -0.019967 0.0
-0.783364 -0.026280 0.0
-0.767083 -0.032508 0.0
-0.748750 -0.038583 0.0
-0.728404 -0.044435 0.0
-0.706109 -0.049983 0.0
-0.681969 -0.055130 0.0
-0.656131 -0.059776 0.0
-0.628784 -0.063826 0.0
-0.600159 -0.067184 0.0
-0.570526 -0.069783 0.0
-0.540175 -0.071576 0.0
-0.509411 -0.072540 0.0
-0.478545 -0.072661 0.0
-0.447896 -0.071955 0.0
-0.417755 -0.070495 0.0
-0.388356 -0.068362 0.0
-0.359951 -0.065532 0.0
-0.332804 -0.062114 0.0
-0.307126 -0.058248 0.0
-0.283067 -0.054109 0.0
-0.260690 -0.049900 0.0
-0.239990 -0.045755 0.0
-0.220926 -0.041797 0.0
-0.203391 -0.038199 0.0
-0.187189 -0.035117 0.0
-0.172078 -0.032673 0.0
-0.157785 -0.031027 0.0
-0.143964 -0.030380 0.0
-0.130188 -0.030883 0.0
-0.116028 -0.032452 0.0
-0.101087 -0.035002 0.0
-0.084934 -0.038481 0.0
-0.067095 -0.042802 0.0
-0.047213 -0.047682 0.0
-0.025049 -0.053096 0.0
-0.000595 -0.058822 0.0
0.025794 -0.064646 0.0
0.054047 -0.070251 0.0
0.084305 -0.075448 0.0
0.116458 -0.079972 0.0
0.150303 -0.083651 0.0
0.185629 -0.086291 0.0
0.222082 -0.088103 0.0
0.259182 -0.089002 0.0
0.296528 -0.088922 0.0
0.333771 -0.087860 0.0
0.370570 -0.085925 0.0
0.406556 -0.083242 0.0
0.441388 -0.079901 0.0
0.474779 -0.075998 0.0
0.506500 -0.071638 0.0
0.536373 -0.066936 0.0
0.564268 -0.062010 0.0
0.590110 -0.056979 0.0
0.613871 -0.051960 0.0
0.635568 -0.047064 0.0
0.655266 -0.042393 0.0
0.673070 -0.038044 0.0
0.689125 -0.034100 0.0
0.703609 -0.030633 0.0
0.716734 -0.027703 0.0
0.728734 -0.025357 0.0
0.739865 -0.023626 0.0
0.750399 -0.022526 0.0
0.760613 -0.022055 0.0
0.770788 -0.022193 0.0
0.781196 -0.022902 0.0
0.792091 -0.024122 0.0
0.803705 -0.025773 0.0
0.816232 -0.027759 0.0
0.829822 -0.029965 0.0
0.844575 -0.032264 0.0
0.860533 -0.034523 0.0
0.877676 -0.036607 0.0
0.895923 -0.038387 0.0
0.915133 -0.039747 0.0
0.935113 -0.040591 0.0
0.955624 -0.040846 0.0
0.976391 -0.040467 0.0
0.997118 -0.039438 0.0
1.017502 -0.037769 0.0
1.037242 -0.035499 0.0
1.056059 -0.032693 0.0
1.073703 -0.029439 0.0
1.089965 -0.025852 0.0
1.104678 -0.022072 0.0
1.117721 -0.018268 0.0
1.129017 -0.014639 0.0
1.138496 -0.011426 0.0
1.146015 -0.008927 0.0
1.150899 -0.007755 0.0
1.000304 0.002105 0.0
1.001299 0.005845 0.0
1.002844 0.008858 0.0
1.004573 0.011225 0.0
1.006286 0.013097 0.0
1.007891 0.014606 0.0
1.009356 0.015852 0.0
1.010673 0.016901 0.0
1.011850 0.017804 0.0
1.012894 0.018596 0.0
1.013816 0.019307 0.0
1.014622 0.019960 0.0
1.015317 0.020578 0.0
1.015901 0.021180 0.0
1.016374 0.021783 0.0
1.016729 0.022402 0.0
1.016960 0.023052 0.0
1.017057 0.023744 0.0
1.017008 0.024490 0.0
1.016797 0.025302 0.0
1.016409 0.026193 0.0
1.015826 0.027179 0.0
1.015029 0.028278 0.0
1.013996 0.029518 0.0
1.012705 0.030932 0.0
1.011130 0.032566 0.0
1.009244 0.034481 0.0
1.007016 0.036760 0.0
1.004413 0.039513 0.0
1.001395 0.042891 0.0
0.997917 0.047103 0.0
0.993920 0.052436 0.0
0.989326 0.059293 0.0
0.984013 0.068240 0.0
0.977777 0.080078 0.0
0.970239 0.095935 0.0
0.960670 0.117388 0.0
0.947623 0.146606 0.0
0.928194 0.186452 0.0
0.896528 0.240371 0.0
0.840827 0.311497 0.0
0.737696 0.399391 0.0
0.544774 0.491646 0.0
0.209576 0.528562 0.0
0.500000 -0.528736 0.0
1.000000 0.000000 0.0
1.000000 0.000000 0.0
1.000000 0.000000 0.0
1.000000 0.000000 0.0
1.000000 0.000000 0.0
0.500000 0.177189 0.0
-0.013310 -0.177110 0.0
-0.057712 -0.076520 0.0
-0.123448 0.024261 0.0
-0.188063 0.082790 0.0
-0.250386 0.111438 0.0
-0.314157 0.125848 0.0
-0.373292 0.125627 0.0
-0.419676 0.113442 0.0
-0.446405 0.106701 0.0
-0.466773 0.142230 0.0
-0.498939 0.201585 0.0
-0.544142 0.261730 0.0
-0.600976 0.316216 0.0
-0.670564 0.361188 0.0
-0.751612 0.390380 0.0
-0.839157 0.398094 0.0
-0.926114 0.381219 0.0
-1.004624 0.339937 0.0
-1.067261 0.277887 0.0
-1.108288 0.201728 0.0
-1.124828 0.120059 0.0
-1.117737 0.041827 0.0
-1.091453 -0.025822 0.0
-1.053023 -0.075850 0.0
-1.009069 -0.109120 0.0
-0.963776 -0.128527 0.0
-0.919651 -0.137235 0.0
-0.877996 -0.137943 0.0
-0.839421 -0.132722 0.0
-0.804193 -0.123111 0.0
-0.772412 -0.110300 0.0
-0.744092 -0.095264 0.0
-0.719195 -0.078848 0.0
-0.697644 -0.061812 0.0
-0.679319 -0.044835 0.0
-0.664058 -0.028495 0.0
-0.651650 -0.013246 0.0
-0.641766 0.000575 0.0
-0.634158 0.012803 0.0
-0.628680 0.022952 0.0
-0.625078 0.030961 0.0
-0.623047 0.036883 0.0
-0.622288 0.040829 0.0
-0.622513 0.042952 0.0
-0.623437 0.043430 0.0
-0.624771 0.042444 0.0
-0.626226 0.040171 0.0
-0.627509 0.036771 0.0
-0.628332 0.032385 0.0
-0.628421 0.027134 0.0
-0.627523 0.021130 0.0
-0.625420 0.014476 0.0
-0.621957 0.007275 0.0
-0.617021 -0.000441 0.0
-0.610618 -0.008318 0.0
-0.602631 -0.016347 0.0
-0.592837 -0.024569 0.0
-0.581147 -0.032891 0.0
-0.567489 -0.041233 0.0
-0.551821 -0.049503 0.0
-0.534144 -0.057597 0.0
-0.514484 -0.065427 0.0
-0.492887 -0.072882 0.0
-0.469440 -0.079818 0.0
-0.444280 -0.086087 0.0
-0.417579 -0.091563 0.0
-0.389563 -0.096088 0.0
-0.360511 -0.099565 0.0
-0.330728 -0.101927 0.0
-0.300526 -0.103155 0.0
-0.270225 -0.103212 0.0
-0.240175 -0.102103 0.0
-0.210715 -0.099949 0.0
-0.182071 -0.096951 0.0
-0.154495 -0.092923 0.0
-0.128283 -0.088081 0.0
-0.103644 -0.082598 0.0
-0.080763 -0.076701 0.0
-0.059721 -0.070727 0.0
-0.040527 -0.064823 0.0
-0.023173 -0.059147 0.0
-0.007553 -0.054004 0.0
0.006597 -0.049663 0.0
0.019589 -0.046229 0.0
0.031773 -0.043948 0.0
0.043567 -0.043074 0.0
0.055253 -0.043650 0.0
0.067080 -0.045672 0.0
0.079532 -0.049174 0.0
0.093170 -0.054100 0.0
0.108450 -0.060302 0.0
0.125790 -0.067404 0.0
0.145494 -0.075242 0.0
0.167740 -0.083377 0.0
0.192695 -0.091436 0.0
0.220307 -0.099327 0.0
0.250346 -0.106670 0.0
0.282580 -0.113137 0.0
0.316731 -0.118481 0.0
0.352473 -0.122528 0.0
0.389404 -0.125250 0.0
0.427057 -0.126607 0.0
0.464977 -0.126582 0.0
0.502741 -0.125208 0.0
0.539950 -0.122584 0.0
0.576223 -0.118843 0.0
0.611215 -0.114125 0.0
0.644632 -0.108583 0.0
0.676235 -0.102377 0.0
0.705840 -0.095675 0.0
0.733322 -0.088649 0.0
0.758605 -0.081467 0.0
0.781668 -0.074295 0.0
0.802534 -0.067292 0.0
0.821277 -0.060605 0.0
0.838011 -0.054370 0.0
0.852891 -0.048708 0.0
0.866107 -0.043725 0.0
0.877882 -0.039511 0.0
0.888467 -0.036135 0.0
0.898137 -0.033649 0.0
0.907184 -0.032082 0.0
0.915910 -0.031439 0.0
0.924624 -0.031697 0.0
0.933628 -0.032809 0.0
0.943210 -0.034693 0.0
0.953637 -0.037242 0.0
0.965135 -0.040316 0.0
0.977887 -0.043751 0.0
0.992018 -0.047363 0.0
1.007589 -0.050953 0.0
1.024589 -0.054320 0.0
1.042936 -0.057266 0.0
1.062472 -0.059614 0.0
1.082976 -0.061208 0.0
1.104166 -0.061930 0.0
1.125718 -0.061702 0.0
1.147274 -0.060487 0.0
1.168468 -0.058296 0.0
1.188938 -0.055182 0.0
1.208348 -0.051238 0.0
1.226404 -0.046595 0.0
1.242863 -0.041418 0.0
1.257545 -0.035902 0.0
1.270331 -0.030269 0.0
1.281158 -0.024760 0.0
1.289995 -0.019622 0.0
1.296806 -0.015061 0.0
1.301334 -0.011033 0.0
1.000169 0.001633 0.0
1.000772 0.004719 0.0
1.001796 0.007416 0.0
1.003040 0.009693 0.0
1.004357 0.011599 0.0
1.005658 0.013199 0.0
1.006895 0.014558 0.0
1.008047 0.015725 0.0
1.009109 0.016742 0.0
1.010081 0.017641 0.0
1.010968 0.018453 0.0
1.011774 0.019202 0.0
1.012503 0.019913 0.0
1.013156 0.020607 0.0
1.013734 0.021305 0.0
1.014233 0.022024 0.0
1.014650 0.022781 0.0
1.014978 0.023589 0.0
1.015210 0.024462 0.0
1.015338 0.025413 0.0
1.015352 0.026456 0.0
1.015244 0.027607 0.0
1.015004 0.028887 0.0
1.014625 0.030321 0.0
1.014101 0.031944 0.0
1.013430 0.033801 0.0
1.012612 0.035950 0.0
1.011658 0.038472 0.0
1.010590 0.041473 0.0
1.009445 0.045095 0.0
1.008287 0.049536 0.0
1.007215 0.055071 0.0
1.006377 0.062089 0.0
1.005985 0.071149 0.0
1.006320 0.083072 0.0
1.007713 0.099085 0.0
1.010465 0.121055 0.0
1.014578 0.151874 0.0
1.019072 0.196120 0.0
1.020265 0.261176 0.0
1.007541 0.359116 0.0
0.952961 0.509483 0.0
0.786267 0.741169 0.0
0.331182 1.069321 0.0
0.500000 -1.069617 0.0
1.000000 0.000000 0.0
1.000000 0.000000 0.0
1.000000 0.000000 0.0
1.000000 0.000000 0.0
1.000000 0.000000 0.0
0.500000 0.115703 0.0
-0.048251 -0.115549 0.0
-0.150049 0.008119 0.0
-0.240595 0.095905 0.0
-0.312929 0.148095 0.0
-0.382794 0.178321 0.0
-0.450248 0.190188 0.0
-0.512227 0.182402 0.0
-0.552112 0.142937 0.0
-0.538010 0.089834 0.0
-0.503418 0.144873 0.0
-0.502126 0.229816 0.0
-0.522971 0.299548 0.0
-0.553707 0.365968 0.0
-0.599805 0.427121 0.0
-0.663777 0.469466 0.0
-0.740581 0.483357 0.0
-0.821505 0.463837 0.0
-0.896097 0.410420 0.0
-0.953761 0.327706 0.0
-0.986110 0.225285 0.0
-0.989082 0.116013 0.0
-0.963565 0.013264 0.0
-0.918169 -0.068939 0.0
-0.864058 -0.125274 0.0
-0.808172 -0.159535 0.0
-0.754472 -0.177104 0.0
-0.704515 -0.182741 0.0
-0.658675 -0.179932 0.0
-0.616950 -0.171033 0.0
-0.579304 -0.157674 0.0
-0.545711 -0.141112 0.0
-0.516089 -0.122394 0.0
-0.490276 -0.102427 0.0
-0.468052 -0.082009 0.0
-0.449156 -0.061859 0.0
-0.433311 -0.042577 0.0
-0.420244 -0.024640 0.0
-0.409716 -0.008443 0.0
-0.401377 0.005875 0.0
-0.395024 0.018049 0.0
-0.390590 0.027828 0.0
-0.387861 0.035256 0.0
-0.386604 0.040439 0.0
-0.386561 0.043523 0.0
-0.387451 0.044672 0.0
-0.388970 0.044055 0.0
-0.390793 0.041838 0.0
-0.392588 0.038182 0.0
-0.394023 0.033233 0.0
-0.394785 0.027136 0.0
-0.394593 0.020038 0.0
-0.393229 0.012102 0.0
-0.390539 0.003497 0.0
-0.386553 -0.005585 0.0
-0.381172 -0.014958 0.0
-0.374156 -0.024710 0.0
-0.365409 -0.034748 0.0
-0.354839 -0.044973 0.0
-0.342353 -0.055295 0.0
-0.327879 -0.065582 0.0
-0.311407 -0.075668 0.0
-0.292953 -0.085470 0.0
-0.272541 -0.094848 0.0
-0.250257 -0.103583 0.0
-0.226267 -0.111472 0.0
-0.200718 -0.118429 0.0
-0.173796 -0.124160 0.0
-0.145781 -0.128560 0.0
-0.116971 -0.131524 0.0
-0.087685 -0.133046 0.0
-0.058233 -0.133073 0.0
-0.028891 -0.131634 0.0
0.000014 -0.128782 0.0
0.027814 -0.124562 0.0
0.054067 -0.119142 0.0
0.078730 -0.112737 0.0
0.101679 -0.105530 0.0
0.122812 -0.097783 0.0
0.141999 -0.089872 0.0
0.159115 -0.081987 0.0
0.174164 -0.074386 0.0
0.187247 -0.067469 0.0
0.198507 -0.061607 0.0
0.208226 -0.056996 0.0
0.216809 -0.053947 0.0
0.224657 -0.052719 0.0
0.232293 -0.053328 0.0
0.240353 -0.055881 0.0
0.249409 -0.060472 0.0
0.259970 -0.067002 0.0
0.272524 -0.075234 0.0
0.287521 -0.084809 0.0
0.305324 -0.095345 0.0
0.326175 -0.106371 0.0
0.350202 -0.117423 0.0
0.377365 -0.128114 0.0
0.407465 -0.138023 0.0
0.440213 -0.146765 0.0
0.475240 -0.154031 0.0
0.512117 -0.159598 0.0
0.550353 -0.163348 0.0
0.589419 -0.165228 0.0
0.628780 -0.165242 0.0
0.667924 -0.163456 0.0
0.706372 -0.159993 0.0
0.743685 -0.155020 0.0
0.779478 -0.148733 0.0
0.813429 -0.141343 0.0
0.845282 -0.133073 0.0
0.874849 -0.124153 0.0
0.902008 -0.114812 0.0
0.926698 -0.105276 0.0
0.948913 -0.095762 0.0
0.968698 -0.086477 0.0
0.986149 -0.077614 0.0
1.001401 -0.069348 0.0
1.014630 -0.061840 0.0
1.026050 -0.055229 0.0
1.035906 -0.049637 0.0
1.044470 -0.045159 0.0
1.052043 -0.041868 0.0
1.058943 -0.039810 0.0
1.065504 -0.038999 0.0
1.072069 -0.039415 0.0
1.078976 -0.041002 0.0
1.086557 -0.043664 0.0
1.095121 -0.047261 0.0
1.104941 -0.051615 0.0
1.116246 -0.056509 0.0
1.129206 -0.061696 0.0
1.143922 -0.066907 0.0
1.160418 -0.071863 0.0
1.178637 -0.076289 0.0
1.198437 -0.079928 0.0
1.219598 -0.082557 0.0
1.241821 -0.083994 0.0
1.264744 -0.084112 0.0
1.287953 -0.082842 0.0
1.310995 -0.080178 0.0
1.333402 -0.076177 0.0
1.354707 -0.070958 0.0
1.374473 -0.064696 0.0
1.392314 -0.057617 0.0
1.407918 -0.049990 0.0
1.421071 -0.042119 0.0
1.431667 -0.034331 0.0
1.439731 -0.026952 0.0
1.445452 -0.020263 0.0
1.449356 -0.014262 0.0
1.000107 0.001357 0.0
1.000507 0.003991 0.0
1.001221 0.006405 0.0
1.002138 0.008544 0.0
1.003158 0.010411 0.0
1.004209 0.012035 0.0
1.005244 0.013450 0.0
1.006236 0.014688 0.0
1.007174 0.015780 0.0
1.008050 0.016754 0.0
1.008865 0.017637 0.0
1.009621 0.018456 0.0
1.010317 0.019234 0.0
1.010954 0.019995 0.0
1.011532 0.020762 0.0
1.012047 0.021553 0.0
1.012498 0.022386 0.0
1.012878 0.023276 0.0
1.013184 0.024238 0.0
1.013409 0.025284 0.0
1.013550 0.026430 0.0
1.013602 0.027689 0.0
1.013563 0.029082 0.0
1.013435 0.030632 0.0
1.013223 0.032369 0.0
1.012940 0.034331 0.0
1.012606 0.036571 0.0
1.012260 0.039152 0.0
1.011959 0.042162 0.0
1.011794 0.045715 0.0
1.011906 0.049962 0.0
1.012508 0.055115 0.0
1.013921 0.061469 0.0
1.016626 0.069455 0.0
1.021334 0.079723 0.0
1.029084 0.093291 0.0
1.041360 0.111821 0.0
1.060213 0.138141 0.0
1.088286 0.177285 0.0
1.128446 0.238657 0.0
1.182031 0.340773 0.0
1.241641 0.522795 0.0
1.273931 0.862261 0.0
0.638371 1.784109 0.0
-1.834566 -0.700439 0.0
-3.637998 0.000000 0.0
-3.596628 0.000000 0.0
-3.576595 0.000000 0.0
-3.549208 0.000000 0.0
-3.495316 0.000000 0.0
-1.729507 0.033747 0.0
-0.096705 0.019945 0.0
-0.248523 0.116780 0.0
-0.346473 0.175739 0.0
-0.423438 0.217560 0.0
-0.486561 0.241845 0.0
-0.542721 0.250277 0.0
-0.605290 0.246863 0.0
-0.655783 0.168853 0.0
-0.573814 -0.032153 0.0
-0.443213 0.101666 0.0
-0.420186 0.248705 0.0
-0.428245 0.309563 0.0
-0.426128 0.384572 0.0
-0.444303 0.472790 0.0
-0.494339 0.537805 0.0
-0.567483 0.564967 0.0
-0.651491 0.547160 0.0
-0.731706 0.481903 0.0
-0.792120 0.374301 0.0
-0.819441 0.238358 0.0
-0.808499 0.094970 0.0
-0.764654 -0.035055 0.0
-0.701876 -0.128793 0.0
-0.634298 -0.187110 0.0
-0.570075 -0.217808 0.0
-0.512419 -0.230188 0.0
-0.461106 -0.230928 0.0
-0.414686 -0.224004 0.0
-0.371920 -0.211451 0.0
-0.332395 -0.194427 0.0
-0.296378 -0.173969 0.0
-0.264326 -0.151212 0.0
-0.236474 -0.127274 0.0
-0.212774 -0.103085 0.0
-0.192963 -0.079489 0.0
-0.176656 -0.057099 0.0
-0.163490 -0.036351 0.0
-0.153161 -0.017590 0.0
-0.145391 -0.001087 0.0
-0.139907 0.013174 0.0
-0.136485 0.024848 0.0
-0.134909 0.033932 0.0
-0.134906 0.040504 0.0
-0.136175 0.044685 0.0
-0.138394 0.046620 0.0
-0.141229 0.046461 0.0
-0.144343 0.044369 0.0
-0.147405 0.040508 0.0
-0.150099 0.035036 0.0
-0.152121 0.028116 0.0
-0.153188 0.019933 0.0
-0.153089 0.010744 0.0
-0.151742 0.000817 0.0
-0.149101 -0.009532 0.0
-0.145069 -0.020424 0.0
-0.139540 -0.031789 0.0
-0.132420 -0.043536 0.0
-0.123614 -0.055562 0.0
-0.113002 -0.067804 0.0
-0.100437 -0.080111 0.0
-0.085875 -0.092173 0.0
-0.069302 -0.103991 0.0
-0.050661 -0.115381 0.0
-0.029975 -0.126020 0.0
-0.007388 -0.135610 0.0
0.016727 -0.143956 0.0
0.042077 -0.150904 0.0
0.068527 -0.156281 0.0
0.095840 -0.159925 0.0
0.123690 -0.161781 0.0
0.151692 -0.161793 0.0
0.179428 -0.159994 0.0
0.206480 -0.156379 0.0
0.232591 -0.150877 0.0
0.257468 -0.143957 0.0
0.280703 -0.135819 0.0
0.302004 -0.126698 0.0
0.321156 -0.116900 0.0
0.337991 -0.106777 0.0
0.352433 -0.096641 0.0
0.364526 -0.086875 0.0
0.374382 -0.077920 0.0
0.382173 -0.070207 0.0
0.388175 -0.064117 0.0
0.392779 -0.060013 0.0
0.396477 -0.058200 0.0
0.399872 -0.058877 0.0
0.403651 -0.062170 0.0
0.408521 -0.068110 0.0
0.415166 -0.076570 0.0
0.424215 -0.087268 0.0
0.436222 -0.099779 0.0
0.451623 -0.113579 0.0
0.470709 -0.128074 0.0
0.493615 -0.142653 0.0
0.520304 -0.156735 0.0
0.550576 -0.169774 0.0
0.584101 -0.181287 0.0
0.620446 -0.190882 0.0
0.659095 -0.198273 0.0
0.699469 -0.203284 0.0
0.740949 -0.205837 0.0
0.782899 -0.205944 0.0
0.824693 -0.203692 0.0
0.865734 -0.199245 0.0
0.905473 -0.192820 0.0
0.943422 -0.184676 0.0
0.979174 -0.175102 0.0
1.012409 -0.164401 0.0
1.042898 -0.152882 0.0
1.070505 -0.140850 0.0
1.095176 -0.128599 0.0
1.116929 -0.116408 0.0
1.135849 -0.104537 0.0
1.152072 -0.093227 0.0
1.165779 -0.082694 0.0
1.177192 -0.073136 0.0
1.186565 -0.064726 0.0
1.194181 -0.057612 0.0
1.200350 -0.051918 0.0
1.205406 -0.047738 0.0
1.209700 -0.045135 0.0
1.213599 -0.044134 0.0
1.217475 -0.044721 0.0
1.221704 -0.046834 0.0
1.226652 -0.050361 0.0
1.232664 -0.055139 0.0
1.240055 -0.060948 0.0
1.249094 -0.067520 0.0
1.259994 -0.074544 0.0
1.272899 -0.081679 0.0
1.287877 -0.088565 0.0
1.304917 -0.094844 0.0
1.323920 -0.100176 0.0
1.344708 -0.104258 0.0
1.367024 -0.106834 0.0
1.390543 -0.107715 0.0
1.414874 -0.106778 0.0
1.439571 -0.103981 0.0
1.464146 -0.099355 0.0
1.488074 -0.093014 0.0
1.510813 -0.085145 0.0