# vtk DataFile Version 3.0
Vector Field
ASCII
DATASET RECTILINEAR_GRID
DIMENSIONS 200 50 1
X_COORDINATES 200 double
0.050000 0.150000 0.250000 0.350000 0.450000 0.550000 0.650000 0.750000 0.850000 0.950000 1.050000 1.150000 1.250000 1.350000 1.450000 1.550000 1.650000 1.750000 1.850000 1.950000 2.050000 2.150000 2.250000 2.350000 2.450000 2.550000 2.650000 2.750000 2.850000 2.950000 3.050000 3.150000 3.250000 3.350000 3.450000 3.550000 3.650000 3.750000 3.850000 3.950000 4.050000 4.150000 4.250000 4.350000 4.450000 4.550000 4.650000 4.750000 4.850000 4.950000 5.050000 5.150000 5.250000 5.350000 5.450000 5.550000 5.650000 5.750000 5.850000 5.950000 6.050000 6.150000 6.250000 6.350000 6.450000 6.550000 6.650000 6.750000 6.850000 6.950000 7.050000 7.150000 7.250000 7.350000 7.450000 7.550000 7.650000 7.750000 7.850000 7.950000 8.050000 8.150000 8.250000 8.350000 8.450000 8.550000 8.650000 8.750000 8.850000 8.950000 9.050000 9.150000 9.250000 9.350000 9.450000 9.550000 9.650000 9.750000 9.850000 9.950000 10.050000 10.150000 10.250000 10.350000 10.450000 10.550000 10.650000 10.750000 10.850000 10.950000 11.050000 11.150000 11.250000 11.350000 11.450000 11.550000 11.650000 11.750000 11.850000 11.950000 12.050000 12.150000 12.250000 12.350000 12.450000 12.550000 12.650000 12.750000 12.850000 12.950000 13.050000 13.150000 13.250000 13.350000 13.450000 13.550000 13.650000 13.750000 13.850000 13.950000 14.050000 14.150000 14.250000 14.350000 14.450000 14.550000 14.650000 14.750000 14.850000 14.950000 15.050000 15.150000 15.250000 15.350000 15.450000 15.550000 15.650000 15.750000 15.850000 15.950000 16.050000 16.150000 16.250000 16.350000 16.450000 16.550000 16.650000 16.750000 16.850000 16.950000 17.050000 17.150000 17.250000 17.350000 17.450000 17.550000 17.650000 17.750000 17.850000 17.950000 18.050000 18.150000 18.250000 18.350000 18.450000 18.550000 18.650000 18.750000 18.850000 18.950000 19.050000 19.150000 19.250000 19.350000 19.450000 19.550000 19.650000 19.750000 19.850000 19.950000 
Y_COORDINATES 50 double
0.050000 0.150000 0.250000 0.350000 0.450000 0.550000 0.650000 0.750000 0.850000 0.950000 1.050000 1.150000 1.250000 1.350000 1.450000 1.550000 1.650000 1.750000 1.850000 1.950000 2.050000 2.150000 2.250000 2.350000 2.450000 2.550000 2.650000 2.750000 2.850000 2.950000 3.050000 3.150000 3.250000 3.350000 3.450000 3.550000 3.650000 3.750000 3.850000 3.950000 4.050000 4.150000 4.250000 4.350000 4.450000 4.550000 4.650000 4.750000 4.850000 4.950000 
Z_COORDINATES 1 double
0.0
POINT_DATA 10000
VECTORS Vektorfeld double
0.996425 0.003575 0.0
0.986667 0.006183 0.0
0.973198 0.007286 0.0
0.958096 0.007817 0.0
0.942181 0.008099 0.0
0.925823 0.008258 0.0
0.909214 0.008351 0.0
0.892461 0.008402 0.0
0.875631 0.008428 0.0
0.858767 0.008436 0.0
0.841899 0.008431 0.0
0.825050 0.008418 0.0
0.808235 0.008398 0.0
0.791464 0.008373 0.0
0.774744 0.008347 0.0
0.758078 0.008320 0.0
0.741463 0.008295 0.0
0.724893 0.008275 0.0
0.708354 0.008263 0.0
0.691829 0.008262 0.0
0.675293 0.008274 0.0
0.658714 0.008304 0.0
0.642054 0.008356 0.0
0.625265 0.008433 0.0
0.608289 0.008543 0.0
0.591052 0.008693 0.0
0.573465 0.008894 0.0
0.555412 0.009159 0.0
0.536747 0.009507 0.0
0.517273 0.009966 0.0
0.496735 0.010572 0.0
0.474789 0.011374 0.0
0.450973 0.012441 0.0
0.424668 0.013863 0.0
0.395046 0.015758 0.0
0.361016 0.018272 0.0
0.321172 0.021572 0.0
0.273786 0.025814 0.0
0.216911 0.031062 0.0
0.148718 0.037131 0.0
0.068083 0.043504 0.0
-0.020535 0.045114 0.0
-0.082396 0.016748 0.0
-0.049572 -0.049572 0.0
0.500000 0.049599 0.0
1.000000 0.000000 0.0
1.000000 0.000000 0.0
1.000000 0.000000 0.0
1.000000 0.000000 0.0
1.000000 0.000000 0.0
0.500000 0.029831 0.0
0.029769 -0.029769 0.0
0.076857 -0.017319 0.0
0.100410 -0.006234 0.0
0.102551 0.004092 0.0
0.093697 0.004762 0.0
0.091841 -0.002905 0.0
0.091515 0.003231 0.0
0.073556 0.014728 0.0
0.038776 0.020052 0.0
-0.003708 0.022432 0.0
-0.049735 0.023595 0.0
-0.097870 0.024540 0.0
-0.149114 0.026704 0.0
-0.205280 0.029462 0.0
-0.267126 0.032383 0.0
-0.334628 0.035118 0.0
-0.407083 0.037337 0.0
-0.483214 0.038795 0.0
-0.561344 0.039335 0.0
-0.639549 0.038870 0.0
-0.715779 0.037360 0.0
-0.787960 0.034820 0.0
-0.854109 0.031328 0.0
-0.912469 0.027032 0.0
-0.961643 0.022142 0.0
-1.000703 0.016918 0.0
-1.029253 0.011633 0.0
-1.047424 0.006538 0.0
-1.055775 0.001814 0.0
-1.055090 -0.002498 0.0
-1.046354 -0.006238 0.0
-1.030915 -0.009201 0.0
-1.010306 -0.011408 0.0
-0.985942 -0.012956 0.0
-0.959023 -0.013964 0.0
-0.930506 -0.014552 0.0
-0.901127 -0.014827 0.0
-0.871424 -0.014876 0.0
-0.841778 -0.014770 0.0
-0.812448 -0.014560 0.0
-0.783607 -0.014281 0.0
-0.755370 -0.013956 0.0
-0.727818 -0.013596 0.0
-0.701014 -0.013207 0.0
-0.675016 -0.012791 0.0
-0.649879 -0.012346 0.0
-0.625658 -0.011875 0.0
-0.602408 -0.011376 0.0
-0.580179 -0.010852 0.0
-0.559020 -0.010307 0.0
-0.538967 -0.009746 0.0
-0.520046 -0.009176 0.0
-0.502263 -0.008607 0.0
-0.485606 -0.008050 0.0
-0.470038 -0.007518 0.0
-0.455501 -0.007019 0.0
-0.441918 -0.006564 0.0
-0.429193 -0.006160 0.0
-0.417222 -0.005812 0.0
-0.405889 -0.005522 0.0
-0.395076 -0.005292 0.0
-0.384663 -0.005121 0.0
-0.374532 -0.005009 0.0
-0.364570 -0.004953 0.0
-0.354666 -0.004950 0.0
-0.344720 -0.004996 0.0
-0.334641 -0.005084 0.0
-0.324350 -0.005207 0.0
-0.313784 -0.005359 0.0
-0.302891 -0.005534 0.0
-0.291628 -0.005728 0.0
-0.279955 -0.005945 0.0
-0.267820 -0.006190 0.0
-0.255160 -0.006470 0.0
-0.241898 -0.006792 0.0
-0.227950 -0.007156 0.0
-0.213235 -0.007559 0.0
-0.197681 -0.007994 0.0
-0.181234 -0.008453 0.0
-0.163848 -0.008932 0.0
-0.145489 -0.009428 0.0
-0.126118 -0.009943 0.0
-0.105694 -0.010482 0.0
-0.084152 -0.011060 0.0
-0.061392 -0.011700 0.0
-0.037302 -0.012390 0.0
-0.011985 -0.012927 0.0
0.014122 -0.013181 0.0
0.040704 -0.013401 0.0
0.067722 -0.013617 0.0
0.095097 -0.013759 0.0
0.122611 -0.013755 0.0
0.149886 -0.013520 0.0
0.176705 -0.013299 0.0
0.202875 -0.012872 0.0
0.228011 -0.012264 0.0
0.251776 -0.011501 0.0
0.273882 -0.010605 0.0
0.294067 -0.009580 0.0
0.312017 -0.008370 0.0
0.327200 -0.006813 0.0
0.338990 -0.004977 0.0
0.347803 -0.003836 0.0
0.355644 -0.004005 0.0
0.364039 -0.004390 0.0
0.372831 -0.004402 0.0
0.380704 -0.003470 0.0
0.385299 -0.001125 0.0
0.384772 0.001652 0.0
0.379172 0.003949 0.0
0.369068 0.006155 0.0
0.354638 0.008275 0.0
0.336002 0.010361 0.0
0.313262 0.012379 0.0
0.286630 0.014253 0.0
0.256470 0.015907 0.0
0.223312 0.017251 0.0
0.187772 0.018289 0.0
0.150467 0.019016 0.0
0.112017 0.019433 0.0
0.073030 0.019554 0.0
0.034085 0.019391 0.0
-0.004195 0.018890 0.0
-0.041323 0.018238 0.0
-0.077129 0.017568 0.0
-0.111520 0.016824 0.0
-0.144355 0.016012 0.0
-0.175516 0.015149 0.0
-0.204916 0.014252 0.0
-0.232505 0.013337 0.0
-0.258255 0.012413 0.0
-0.282158 0.011490 0.0
-0.304218 0.010570 0.0
-0.324446 0.009658 0.0
-0.342860 0.008756 0.0
-0.359482 0.007866 0.0
-0.374342 0.006994 0.0
-0.387479 0.006144 0.0
-0.398950 0.005326 0.0
-0.408826 0.004550 0.0
-0.417202 0.003826 0.0
-0.424196 0.003167 0.0
-0.429948 0.002585 0.0
-0.434621 0.002088 0.0
-0.438391 0.001682 0.0
-0.441442 0.001369 0.0
-0.443946 0.001135 0.0
-0.446021 0.000939 0.0
-0.447595 0.000635 0.0
1.001721 0.005430 0.0
1.005225 0.010583 0.0
1.008272 0.013307 0.0
1.010260 0.014909 0.0
1.011239 0.015944 0.0
1.011343 0.016667 0.0
1.010690 0.017205 0.0
1.009367 0.017624 0.0
1.007443 0.017962 0.0
1.004969 0.018241 0.0
1.001985 0.018477 0.0
0.998527 0.018680 0.0
0.994620 0.018858 0.0
0.990287 0.019017 0.0
0.985546 0.019164 0.0
0.980408 0.019306 0.0
0.974882 0.019450 0.0
0.968968 0.019604 0.0
0.962664 0.019777 0.0
0.955959 0.019979 0.0
0.948834 0.020218 0.0
0.941267 0.020507 0.0
0.933222 0.020858 0.0
0.924657 0.021285 0.0
0.915518 0.021808 0.0
0.905735 0.022449 0.0
0.895218 0.023242 0.0
0.883852 0.024229 0.0
0.871486 0.025469 0.0
0.857921 0.027044 0.0
0.842889 0.029065 0.0
0.826032 0.031686 0.0
0.806861 0.035117 0.0
0.784713 0.039641 0.0
0.758683 0.045632 0.0
0.727547 0.053565 0.0
0.689666 0.064004 0.0
0.642908 0.077526 0.0
0.584638 0.094495 0.0
0.512020 0.114509 0.0
0.423575 0.135207 0.0
0.321064 0.144539 0.0
0.199000 0.101248 0.0
0.065624 -0.033520 0.0
0.500000 0.033622 0.0
1.000000 0.000000 0.0
1.000000 0.000000 0.0
1.000000 0.000000 0.0
1.000000 0.000000 0.0
1.000000 0.000000 0.0
0.500000 0.082687 0.0
0.022980 -0.082518 0.0
0.058488 -0.047166 0.0
0.078033 -0.019486 0.0
0.074213 0.019023 0.0
0.035240 0.037659 0.0
-0.035207 0.036501 0.0
-0.116019 0.044963 0.0
-0.185680 0.060616 0.0
-0.244931 0.068194 0.0
-0.299329 0.071171 0.0
-0.352000 0.073554 0.0
-0.405999 0.076715 0.0
-0.462186 0.081960 0.0
-0.520225 0.088412 0.0
-0.580454 0.095509 0.0
-0.643482 0.102522 0.0
-0.709585 0.108492 0.0
-0.778369 0.112555 0.0
-0.848755 0.114091 0.0
-0.919140 0.112704 0.0
-0.987582 0.108198 0.0
-1.051988 0.100570 0.0
-1.110295 0.090035 0.0
-1.160642 0.077032 0.0
-1.201538 0.062212 0.0
-1.232004 0.046375 0.0
-1.251654 0.030376 0.0
-1.260686 0.014997 0.0
-1.259844 0.000863 0.0
-1.250507 -0.011570 0.0
-1.234549 -0.021861 0.0
-1.213696 -0.029871 0.0
-1.189280 -0.035762 0.0
-1.162411 -0.039834 0.0
-1.133984 -0.042432 0.0
-1.104693 -0.043892 0.0
-1.075052 -0.044508 0.0
-1.045423 -0.044527 0.0
-1.016051 -0.044137 0.0
-0.987097 -0.043477 0.0
-0.958660 -0.042641 0.0
-0.930807 -0.041685 0.0
-0.903589 -0.040638 0.0
-0.877051 -0.039508 0.0
-0.851242 -0.038297 0.0
-0.826212 -0.037006 0.0
-0.802016 -0.035633 0.0
-0.778704 -0.034180 0.0
-0.756325 -0.032655 0.0
-0.734923 -0.031067 0.0
-0.714531 -0.029432 0.0
-0.695168 -0.027773 0.0
-0.676839 -0.026121 0.0
-0.659527 -0.024506 0.0
-0.643194 -0.022963 0.0
-0.627785 -0.021520 0.0
-0.613227 -0.020205 0.0
-0.599435 -0.019037 0.0
-0.586311 -0.018030 0.0
-0.573752 -0.017194 0.0
-0.561651 -0.016533 0.0
-0.549897 -0.016046 0.0
-0.538383 -0.015729 0.0
-0.527004 -0.015576 0.0
-0.515658 -0.015577 0.0
-0.504254 -0.015720 0.0
-0.492706 -0.015987 0.0
-0.480941 -0.016359 0.0
-0.468898 -0.016817 0.0
-0.456522 -0.017345 0.0
-0.443764 -0.017938 0.0
-0.430572 -0.018602 0.0
-0.416886 -0.019355 0.0
-0.402635 -0.020216 0.0
-0.387745 -0.021198 0.0
-0.372145 -0.022298 0.0
-0.355780 -0.023498 0.0
-0.338615 -0.024773 0.0
-0.320638 -0.026099 0.0
-0.301849 -0.027460 0.0
-0.282255 -0.028853 0.0
-0.261864 -0.030279 0.0
-0.240690 -0.031745 0.0
-0.218767 -0.033263 0.0
-0.196178 -0.034846 0.0
-0.173065 -0.036446 0.0
-0.149471 -0.037782 0.0
-0.125231 -0.038673 0.0
-0.100307 -0.039414 0.0
-0.074898 -0.040031 0.0
-0.049196 -0.040424 0.0
-0.023301 -0.040498 0.0
0.002748 -0.040101 0.0
0.028397 -0.039186 0.0
0.053057 -0.037816 0.0
0.076565 -0.035963 0.0
0.098637 -0.033639 0.0
0.118943 -0.030879 0.0
0.137169 -0.027717 0.0
0.153110 -0.024124 0.0
0.166665 -0.019798 0.0
0.176998 -0.014115 0.0
0.180917 -0.007429 0.0
0.175144 -0.002481 0.0
0.160226 0.000609 0.0
0.138337 0.003697 0.0
0.111091 0.007804 0.0
0.080522 0.013574 0.0
0.047911 0.020091 0.0
0.012861 0.026159 0.0
-0.024963 0.031872 0.0
-0.065361 0.037387 0.0
-0.108155 0.042679 0.0
-0.152992 0.047638 0.0
-0.199469 0.052103 0.0
-0.247173 0.055921 0.0
-0.295712 0.058933 0.0
-0.344686 0.061120 0.0
-0.393666 0.062471 0.0
-0.442238 0.063000 0.0
-0.490010 0.062746 0.0
-0.536627 0.061760 0.0
-0.581856 0.060029 0.0
-0.625487 0.057857 0.0
-0.667215 0.055483 0.0
-0.706808 0.052892 0.0
-0.744155 0.050126 0.0
-0.779199 0.047239 0.0
-0.811918 0.044282 0.0
-0.842321 0.041299 0.0
-0.870440 0.038320 0.0
-0.896321 0.035367 0.0
-0.920023 0.032454 0.0
-0.941608 0.029587 0.0
-0.961138 0.026771 0.0
-0.978678 0.024012 0.0
-0.994291 0.021320 0.0
-1.008042 0.018707 0.0
-1.020005 0.016196 0.0
-1.030262 0.013812 0.0
-1.038907 0.011586 0.0
-1.046055 0.009549 0.0
-1.051835 0.007735 0.0
-1.056397 0.006172 0.0
-1.059906 0.004878 0.0
-1.062541 0.003859 0.0
-1.064491 0.003099 0.0
-1.065977 0.002536 0.0
-1.067367 0.002002 0.0
1.000675 0.003034 0.0
1.002554 0.007595 0.0
1.005040 0.010762 0.0
1.007507 0.012998 0.0
1.009733 0.014649 0.0
1.011660 0.015931 0.0
1.013283 0.016971 0.0
1.014615 0.017847 0.0
1.015672 0.018606 0.0
1.016464 0.019278 0.0
1.017001 0.019885 0.0
1.017290 0.020442 0.0
1.017333 0.020960 0.0
1.017131 0.021449 0.0
1.016686 0.021919 0.0
1.015993 0.022381 0.0
1.015049 0.022846 0.0
1.013844 0.023326 0.0
1.012368 0.023835 0.0
1.010606 0.024388 0.0
1.008539 0.025000 0.0
1.006143 0.025689 0.0
1.003387 0.026476 0.0
1.000235 0.027383 0.0
0.996645 0.028440 0.0
0.992561 0.029684 0.0
0.987920 0.031165 0.0
0.982640 0.032951 0.0
0.976620 0.035133 0.0
0.969728 0.037837 0.0
0.961791 0.041239 0.0
0.952581 0.045580 0.0
0.941778 0.051196 0.0
0.928940 0.058549 0.0
0.913429 0.068266 0.0
0.894311 0.081184 0.0
0.870202 0.098375 0.0
0.839010 0.121106 0.0
0.797566 0.150628 0.0
0.741092 0.187468 0.0
0.662423 0.229362 0.0
0.550036 0.265281 0.0
0.385185 0.267421 0.0
0.143382 0.175486 0.0
0.500000 -0.175288 0.0
1.000000 0.000000 0.0
1.000000 0.000000 0.0
1.000000 0.000000 0.0
1.000000 0.000000 0.0
1.000000 0.000000 0.0
0.500000 0.112384 0.0
0.006665 -0.112163 0.0
0.008467 -0.054830 0.0
-0.032464 0.009565 0.0
-0.101135 0.062464 0.0
-0.166823 0.098880 0.0
-0.236193 0.115097 0.0
-0.309205 0.120191 0.0
-0.377685 0.123529 0.0
-0.434701 0.121549 0.0
-0.480065 0.117579 0.0
-0.519222 0.118974 0.0
-0.558330 0.124402 0.0
-0.598960 0.131090 0.0
-0.640237 0.138597 0.0
-0.682247 0.147564 0.0
-0.726197 0.157444 0.0
-0.773105 0.166581 0.0
-0.823141 0.173285 0.0
-0.875656 0.176263 0.0
-0.929375 0.174636 0.0
-0.982574 0.167908 0.0
-1.033269 0.155960 0.0
-1.079394 0.139077 0.0
-1.119019 0.117962 0.0
-1.150551 0.093709 0.0
-1.172913 0.067705 0.0
-1.185684 0.041467 0.0
-1.189146 0.016401 0.0
-1.184098 -0.006430 0.0
-1.171951 -0.025761 0.0
-1.154373 -0.041205 0.0
-1.132826 -0.052928 0.0
-1.108614 -0.061332 0.0
-1.082792 -0.066956 0.0
-1.056157 -0.070373 0.0
-1.029282 -0.072117 0.0
-1.002556 -0.072650 0.0
-0.976229 -0.072343 0.0
-0.950443 -0.071479 0.0
-0.925273 -0.070260 0.0
-0.900753 -0.068816 0.0
-0.876898 -0.067219 0.0
-0.853723 -0.065497 0.0
-0.831253 -0.063656 0.0
-0.809524 -0.061688 0.0
-0.788580 -0.059589 0.0
-0.768467 -0.057359 0.0
-0.749231 -0.055002 0.0
-0.730915 -0.052528 0.0
-0.713555 -0.049955 0.0
-0.697181 -0.047310 0.0
-0.681807 -0.044631 0.0
-0.667432 -0.041967 0.0
-0.654034 -0.039370 0.0
-0.641572 -0.036893 0.0
-0.629987 -0.034584 0.0
-0.619205 -0.032481 0.0
-0.609142 -0.030616 0.0
-0.599704 -0.029012 0.0
-0.590792 -0.027683 0.0
-0.582305 -0.026634 0.0
-0.574138 -0.025865 0.0
-0.566191 -0.025371 0.0
-0.558365 -0.025141 0.0
-0.550563 -0.025160 0.0
-0.542695 -0.025409 0.0
-0.534679 -0.025862 0.0
-0.526438 -0.026489 0.0
-0.517911 -0.027258 0.0
-0.509044 -0.028147 0.0
-0.499790 -0.029147 0.0
-0.490103 -0.030272 0.0
-0.479928 -0.031547 0.0
-0.469204 -0.032999 0.0
-0.457869 -0.034639 0.0
-0.445876 -0.036450 0.0
-0.433199 -0.038387 0.0
-0.419851 -0.040398 0.0
-0.405866 -0.042436 0.0
-0.391296 -0.044482 0.0
-0.376187 -0.046533 0.0
-0.360587 -0.048590 0.0
-0.344547 -0.050649 0.0
-0.328132 -0.052696 0.0
-0.311434 -0.054701 0.0
-0.294543 -0.056595 0.0
-0.277516 -0.058255 0.0
-0.260364 -0.059593 0.0
-0.243153 -0.060629 0.0
-0.226049 -0.061329 0.0
-0.209262 -0.061615 0.0
-0.193057 -0.061406 0.0
-0.177747 -0.060553 0.0
-0.163468 -0.058660 0.0
-0.150442 -0.056028 0.0
-0.139141 -0.052560 0.0
-0.130061 -0.048194 0.0
-0.123797 -0.042895 0.0
-0.121078 -0.036646 0.0
-0.122747 -0.029467 0.0
-0.129518 -0.021239 0.0
-0.141356 -0.011169 0.0
-0.156294 0.000645 0.0
-0.172682 0.011606 0.0
-0.192011 0.020769 0.0
-0.215836 0.029251 0.0
-0.244000 0.037658 0.0
-0.275983 0.046271 0.0
-0.311147 0.055170 0.0
-0.348943 0.063926 0.0
-0.389092 0.072078 0.0
-0.431261 0.079749 0.0
-0.474951 0.086802 0.0
-0.519691 0.093092 0.0
-0.565036 0.098470 0.0
-0.610572 0.102795 0.0
-0.655928 0.105955 0.0
-0.700767 0.107910 0.0
-0.744770 0.108664 0.0
-0.787649 0.108258 0.0
-0.829154 0.106765 0.0
-0.869078 0.104284 0.0
-0.907278 0.100934 0.0
-0.943632 0.096937 0.0
-0.978003 0.092502 0.0
-1.010284 0.087746 0.0
-1.040433 0.082768 0.0
-1.068452 0.077660 0.0
-1.094373 0.072501 0.0
-1.118245 0.067355 0.0
-1.140134 0.062271 0.0
-1.160115 0.057278 0.0
-1.178266 0.052396 0.0
-1.194669 0.047632 0.0
-1.209405 0.042992 0.0
-1.222553 0.038479 0.0
-1.234192 0.034104 0.0
-1.244401 0.029883 0.0
-1.253257 0.025840 0.0
-1.260843 0.022010 0.0
-1.267244 0.018434 0.0
-1.272553 0.015157 0.0
-1.276869 0.012224 0.0
-1.280302 0.009677 0.0
-1.282970 0.007548 0.0
-1.285002 0.005855 0.0
-1.286546 0.004598 0.0
-1.287783 0.003760 0.0
-1.288956 0.003342 0.0
1.000312 0.002048 0.0
1.001339 0.005675 0.0
1.002944 0.008592 0.0
1.004758 0.010888 0.0
1.006572 0.012719 0.0
1.008287 0.014219 0.0
1.009863 0.015484 0.0
1.011286 0.016578 0.0
1.012558 0.017547 0.0
1.013681 0.018422 0.0
1.014662 0.019224 0.0
1.015505 0.019972 0.0
1.016214 0.020678 0.0
1.016792 0.021354 0.0
1.017240 0.022012 0.0
1.017556 0.022665 0.0
1.017739 0.023325 0.0
1.017783 0.024008 0.0
1.017683 0.024730 0.0
1.017429 0.025510 0.0
1.017008 0.026366 0.0
1.016406 0.027322 0.0
1.015604 0.028401 0.0
1.014580 0.029632 0.0
1.013311 0.031050 0.0
1.011768 0.032700 0.0
1.009920 0.034639 0.0
1.007732 0.036945 0.0
1.005167 0.039725 0.0
1.002181 0.043123 0.0
0.998726 0.047344 0.0
0.994741 0.052670 0.0
0.990147 0.059502 0.0
0.984824 0.068405 0.0
0.978565 0.080180 0.0
0.970997 0.095957 0.0
0.961389 0.117320 0.0
0.948295 0.146446 0.0
0.928812 0.186215 0.0
0.897078 0.240089 0.0
0.841274 0.311213 0.0
0.737954 0.399137 0.0
0.544815 0.491556 0.0
0.209551 0.528419 0.0
0.500000 -0.528088 0.0
1.000000 0.000000 0.0
1.000000 0.000000 0.0
1.000000 0.000000 0.0
1.000000 0.000000 0.0
1.000000 0.000000 0.0
0.500000 0.096235 0.0
-0.022813 -0.096015 0.0
-0.084320 -0.011273 0.0
-0.155644 0.078261 0.0
-0.224289 0.131083 0.0
-0.296526 0.168186 0.0
-0.368625 0.187260 0.0
-0.438595 0.191009 0.0
-0.500978 0.183575 0.0
-0.547135 0.164676 0.0
-0.572178 0.144859 0.0
-0.586473 0.145146 0.0
-0.603921 0.154785 0.0
-0.625052 0.162468 0.0
-0.645711 0.169153 0.0
-0.665945 0.179253 0.0
-0.688965 0.192724 0.0
-0.717164 0.206409 0.0
-0.751120 0.217449 0.0
-0.790287 0.223781 0.0
-0.833390 0.223939 0.0
-0.878566 0.216981 0.0
-0.923489 0.202504 0.0
-0.965567 0.180736 0.0
-1.002226 0.152587 0.0
-1.031234 0.119624 0.0
-1.051016 0.083934 0.0
-1.060856 0.047850 0.0
-1.060996 0.013619 0.0
-1.052594 -0.017099 0.0
-1.037354 -0.042479 0.0
-1.017135 -0.062284 0.0
-0.993679 -0.076852 0.0
-0.968410 -0.086888 0.0
-0.942390 -0.093243 0.0
-0.916349 -0.096762 0.0
-0.890756 -0.098196 0.0
-0.865884 -0.098168 0.0
-0.841869 -0.097168 0.0
-0.818753 -0.095555 0.0
-0.796526 -0.093579 0.0
-0.775152 -0.091390 0.0
-0.754595 -0.089056 0.0
-0.734840 -0.086590 0.0
-0.715899 -0.083974 0.0
-0.697807 -0.081190 0.0
-0.680610 -0.078227 0.0
-0.664357 -0.075087 0.0
-0.649090 -0.071777 0.0
-0.634845 -0.068314 0.0
-0.621654 -0.064720 0.0
-0.609540 -0.061034 0.0
-0.598509 -0.057311 0.0
-0.588552 -0.053620 0.0
-0.579633 -0.050035 0.0
-0.571695 -0.046628 0.0
-0.564667 -0.043462 0.0
-0.558461 -0.040590 0.0
-0.552983 -0.038049 0.0
-0.548131 -0.035870 0.0
-0.543800 -0.034069 0.0
-0.539879 -0.032655 0.0
-0.536261 -0.031628 0.0
-0.532837 -0.030978 0.0
-0.529504 -0.030693 0.0
-0.526159 -0.030754 0.0
-0.522705 -0.031137 0.0
-0.519048 -0.031807 0.0
-0.515109 -0.032723 0.0
-0.510822 -0.033838 0.0
-0.506140 -0.035115 0.0
-0.501034 -0.036539 0.0
-0.495477 -0.038125 0.0
-0.489433 -0.039912 0.0
-0.482857 -0.041933 0.0
-0.475702 -0.044195 0.0
-0.467936 -0.046654 0.0
-0.459569 -0.049227 0.0
-0.450657 -0.051819 0.0
-0.441293 -0.054364 0.0
-0.431577 -0.056843 0.0
-0.421590 -0.059268 0.0
-0.411398 -0.061646 0.0
-0.401073 -0.063959 0.0
-0.390700 -0.066172 0.0
-0.380384 -0.068239 0.0
-0.370231 -0.070101 0.0
-0.360330 -0.071677 0.0
-0.350767 -0.072885 0.0
-0.341665 -0.073649 0.0
-0.333202 -0.073876 0.0
-0.325609 -0.073448 0.0
-0.319150 -0.072237 0.0
-0.314095 -0.070088 0.0
-0.310673 -0.066826 0.0
-0.309131 -0.062431 0.0
-0.309761 -0.056828 0.0
-0.312823 -0.049944 0.0
-0.318511 -0.041722 0.0
-0.326926 -0.032122 0.0
-0.338082 -0.021167 0.0
-0.351928 -0.008922 0.0
-0.367818 0.004241 0.0
-0.385333 0.017687 0.0
-0.405232 0.030851 0.0
-0.428140 0.043761 0.0
-0.454170 0.056114 0.0
-0.483258 0.068047 0.0
-0.515060 0.079667 0.0
-0.549075 0.090952 0.0
-0.584793 0.101658 0.0
-0.621810 0.111510 0.0
-0.659731 0.120407 0.0
-0.698128 0.128230 0.0
-0.736581 0.134858 0.0
-0.774708 0.140176 0.0
-0.812171 0.144088 0.0
-0.848685 0.146533 0.0
-0.884014 0.147500 0.0
-0.917965 0.147028 0.0
-0.950386 0.145195 0.0
-0.981169 0.142115 0.0
-1.010244 0.137933 0.0
-1.037582 0.132823 0.0
-1.063175 0.126995 0.0
-1.087016 0.120656 0.0
-1.109113 0.113971 0.0
-1.129502 0.107081 0.0
-1.148236 0.100101 0.0
-1.165387 0.093129 0.0
-1.181028 0.086240 0.0
-1.195241 0.079487 0.0
-1.208102 0.072904 0.0
-1.219691 0.066510 0.0
-1.230081 0.060312 0.0
-1.239347 0.054314 0.0
-1.247560 0.048519 0.0
-1.254790 0.042934 0.0
-1.261106 0.037577 0.0
-1.266575 0.032472 0.0
-1.271265 0.027654 0.0
-1.275241 0.023168 0.0
-1.278571 0.019063 0.0
-1.281324 0.015388 0.0
-1.283570 0.012192 0.0
-1.285383 0.009515 0.0
-1.286845 0.007383 0.0
-1.288043 0.005813 0.0
-1.289080 0.004817 0.0
-1.290054 0.004432 0.0
1.000176 0.001560 0.0
1.000810 0.004501 0.0
1.001895 0.007075 0.0
1.003223 0.009262 0.0
1.004640 0.011114 0.0
1.006051 0.012700 0.0
1.007399 0.014080 0.0
1.008657 0.015301 0.0
1.009813 0.016397 0.0
1.010864 0.017397 0.0
1.011810 0.018322 0.0
1.012653 0.019187 0.0
1.013397 0.020008 0.0
1.014045 0.020797 0.0
1.014600 0.021567 0.0
1.015064 0.022330 0.0
1.015437 0.023103 0.0
1.015720 0.023902 0.0
1.015910 0.024746 0.0
1.016004 0.025654 0.0
1.015997 0.026650 0.0
1.015883 0.027756 0.0
1.015653 0.028999 0.0
1.015301 0.030410 0.0
1.014818 0.032024 0.0
1.014200 0.033887 0.0
1.013446 0.036054 0.0
1.012562 0.038602 0.0
1.011564 0.041631 0.0
1.010489 0.045279 0.0
1.009396 0.049737 0.0
1.008383 0.055274 0.0
1.007598 0.062276 0.0
1.007251 0.071301 0.0
1.007624 0.083169 0.0
1.009051 0.099110 0.0
1.011830 0.120995 0.0
1.015965 0.151730 0.0
1.020470 0.195911 0.0
1.021645 0.260951 0.0
1.008831 0.358969 0.0
0.953979 0.509553 0.0
0.786696 0.741562 0.0
0.331201 1.069171 0.0
0.500000 -1.068596 0.0
1.000000 0.000000 0.0
1.000000 0.000000 0.0
1.000000 0.000000 0.0
1.000000 0.000000 0.0
1.000000 0.000000 0.0
0.500000 0.027764 0.0
-0.045649 -0.027554 0.0
-0.133306 0.069431 0.0
-0.214902 0.150478 0.0
-0.294350 0.206960 0.0
-0.372558 0.242755 0.0
-0.446904 0.259137 0.0
-0.516014 0.258211 0.0
-0.576631 0.239374 0.0
-0.613875 0.192277 0.0
-0.606743 0.135168 0.0
-0.581388 0.143779 0.0
-0.576179 0.168391 0.0
-0.581979 0.175795 0.0
-0.582349 0.176855 0.0
-0.578567 0.188003 0.0
-0.580140 0.208566 0.0
-0.591888 0.230514 0.0
-0.613933 0.249345 0.0
-0.645222 0.262341 0.0
-0.684097 0.267358 0.0
-0.728154 0.262794 0.0
-0.774259 0.247718 0.0
-0.818786 0.222126 0.0
-0.858030 0.187100 0.0
-0.888732 0.144822 0.0
-0.908623 0.098408 0.0
-0.916795 0.051387 0.0
-0.913702 0.007130 0.0
-0.901131 -0.031585 0.0
-0.881603 -0.062760 0.0
-0.857580 -0.086246 0.0
-0.831148 -0.102778 0.0
-0.803853 -0.113524 0.0
-0.776729 -0.119751 0.0
-0.750398 -0.122625 0.0
-0.725193 -0.123131 0.0
-0.701246 -0.122052 0.0
-0.678564 -0.119981 0.0
-0.657080 -0.117341 0.0
-0.636689 -0.114411 0.0
-0.617281 -0.111341 0.0
-0.598768 -0.108175 0.0
-0.581114 -0.104880 0.0
-0.564340 -0.101400 0.0
-0.548506 -0.097691 0.0
-0.533690 -0.093740 0.0
-0.519962 -0.089556 0.0
-0.507382 -0.085156 0.0
-0.496001 -0.080560 0.0
-0.485868 -0.075798 0.0
-0.477021 -0.070917 0.0
-0.469484 -0.065995 0.0
-0.463248 -0.061129 0.0
-0.458270 -0.056422 0.0
-0.454478 -0.051970 0.0
-0.451777 -0.047850 0.0
-0.450060 -0.044125 0.0
-0.449211 -0.040842 0.0
-0.449103 -0.038037 0.0
-0.449605 -0.035732 0.0
-0.450580 -0.033938 0.0
-0.451890 -0.032654 0.0
-0.453398 -0.031868 0.0
-0.454972 -0.031563 0.0
-0.456483 -0.031718 0.0
-0.457805 -0.032305 0.0
-0.458821 -0.033280 0.0
-0.459426 -0.034584 0.0
-0.459546 -0.036144 0.0
-0.459145 -0.037892 0.0
-0.458217 -0.039796 0.0
-0.456769 -0.041874 0.0
-0.454795 -0.044181 0.0
-0.452269 -0.046766 0.0
-0.449152 -0.049634 0.0
-0.445422 -0.052709 0.0
-0.441117 -0.055844 0.0
-0.436351 -0.058880 0.0
-0.431293 -0.061725 0.0
-0.426102 -0.064389 0.0
-0.420881 -0.066930 0.0
-0.415692 -0.069364 0.0
-0.410603 -0.071655 0.0
-0.405714 -0.073738 0.0
-0.401143 -0.075560 0.0
-0.397000 -0.077076 0.0
-0.393376 -0.078226 0.0
-0.390360 -0.078914 0.0
-0.388073 -0.079009 0.0
-0.386689 -0.078362 0.0
-0.386418 -0.076824 0.0
-0.387483 -0.074256 0.0
-0.390081 -0.070526 0.0
-0.394367 -0.065523 0.0
-0.400457 -0.059186 0.0
-0.408438 -0.051462 0.0
-0.418365 -0.042321 0.0
-0.430258 -0.031765 0.0
-0.444088 -0.019833 0.0
-0.459768 -0.006621 0.0
-0.476968 0.007578 0.0
-0.495709 0.022372 0.0
-0.516358 0.037720 0.0
-0.538957 0.053316 0.0
-0.563459 0.068706 0.0
-0.589832 0.083572 0.0
-0.617951 0.097796 0.0
-0.647539 0.111309 0.0
-0.678213 0.123999 0.0
-0.709563 0.135680 0.0
-0.741210 0.146152 0.0
-0.772802 0.155278 0.0
-0.803996 0.162948 0.0
-0.834474 0.169071 0.0
-0.863961 0.173576 0.0
-0.892231 0.176420 0.0
-0.919114 0.177597 0.0
-0.944493 0.177144 0.0
-0.968302 0.175143 0.0
-0.990514 0.171713 0.0
-1.011142 0.167007 0.0
-1.030231 0.161205 0.0
-1.047846 0.154506 0.0
-1.064067 0.147125 0.0
-1.078969 0.139269 0.0
-1.092631 0.131117 0.0
-1.105132 0.122824 0.0
-1.116555 0.114515 0.0
-1.126977 0.106288 0.0
-1.136471 0.098219 0.0
-1.145106 0.090356 0.0
-1.152940 0.082731 0.0
-1.160027 0.075358 0.0
-1.166415 0.068242 0.0
-1.172150 0.061384 0.0
-1.177273 0.054784 0.0
-1.181824 0.048450 0.0
-1.185841 0.042395 0.0
-1.189363 0.036645 0.0
-1.192425 0.031233 0.0
-1.195065 0.026205 0.0
-1.197320 0.021610 0.0
-1.199227 0.017501 0.0
-1.200831 0.013928 0.0
-1.202175 0.010936 0.0
-1.203312 0.008559 0.0
-1.204297 0.006820 0.0
-1.205186 0.005736 0.0
-1.206020 0.005322 0.0
1.000115 0.001269 0.0
1.000544 0.003728 0.0
1.001318 0.005991 0.0
1.002317 0.008018 0.0
1.003437 0.009820 0.0
1.004596 0.011424 0.0
1.005741 0.012862 0.0
1.006839 0.014162 0.0
1.007869 0.015349 0.0
1.008823 0.016442 0.0
1.009696 0.017459 0.0
1.010486 0.018416 0.0
1.011196 0.019326 0.0
1.011826 0.020201 0.0
1.012381 0.021054 0.0
1.012861 0.021899 0.0
1.013269 0.022753 0.0
1.013607 0.023632 0.0
1.013875 0.024558 0.0
1.014071 0.025551 0.0
1.014196 0.026635 0.0
1.014247 0.027834 0.0
1.014224 0.029174 0.0
1.014127 0.030684 0.0
1.013961 0.032398 0.0
1.013735 0.034356 0.0
1.013469 0.036605 0.0
1.013196 0.039209 0.0
1.012972 0.042246 0.0
1.012885 0.045826 0.0
1.013073 0.050094 0.0
1.013750 0.055253 0.0
1.015237 0.061596 0.0
1.018015 0.069550 0.0
1.022799 0.079763 0.0
1.030632 0.093257 0.0
1.043001 0.111699 0.0
1.061963 0.137930 0.0
1.090161 0.177008 0.0
1.130456 0.238383 0.0
1.184140 0.340668 0.0
1.243629 0.523217 0.0
1.274594 0.864216 0.0
0.638116 1.786732 0.0
-1.837342 -0.699818 0.0
-3.643521 0.000000 0.0
-3.601535 0.000000 0.0
-3.579447 0.000000 0.0
-3.547305 0.000000 0.0
-3.482770 0.000000 0.0
-1.719556 -0.008944 0.0
-0.067169 0.074337 0.0
-0.187027 0.164128 0.0
-0.285664 0.236014 0.0
-0.371289 0.286497 0.0
-0.444764 0.314901 0.0
-0.507491 0.324063 0.0
-0.563915 0.318818 0.0
-0.624313 0.299782 0.0
-0.665215 0.210014 0.0
-0.602045 0.047128 0.0
-0.505756 0.110175 0.0
-0.490858 0.181886 0.0
-0.500133 0.177375 0.0
-0.479946 0.155458 0.0
-0.443207 0.168879 0.0
-0.419832 0.205888 0.0
-0.416986 0.242092 0.0
-0.430421 0.273247 0.0
-0.457816 0.297123 0.0
-0.497106 0.310741 0.0
-0.545163 0.311525 0.0
-0.597697 0.297628 0.0
-0.649582 0.268628 0.0
-0.695535 0.225795 0.0
-0.730868 0.172163 0.0
-0.752388 0.112479 0.0
-0.759161 0.052260 0.0
-0.752349 -0.003647 0.0
-0.734955 -0.050774 0.0
-0.710731 -0.087323 0.0
-0.682841 -0.113596 0.0
-0.653655 -0.131046 0.0
-0.624704 -0.141502 0.0
-0.596857 -0.146745 0.0
-0.570522 -0.148296 0.0
-0.545835 -0.147352 0.0
-0.522779 -0.144835 0.0
-0.501238 -0.141421 0.0
-0.481049 -0.137574 0.0
-0.462026 -0.133592 0.0
-0.443982 -0.129612 0.0
-0.426777 -0.125621 0.0
-0.410359 -0.121506 0.0
-0.394770 -0.117137 0.0
-0.380117 -0.112440 0.0
-0.366513 -0.107411 0.0
-0.354044 -0.102082 0.0
-0.342772 -0.096481 0.0
-0.332762 -0.090626 0.0
-0.324093 -0.084535 0.0
-0.316858 -0.078262 0.0
-0.311136 -0.071909 0.0
-0.306971 -0.065616 0.0
-0.304353 -0.059530 0.0
-0.303228 -0.053779 0.0
-0.303509 -0.048460 0.0
-0.305092 -0.043648 0.0
-0.307856 -0.039403 0.0
-0.311665 -0.035774 0.0
-0.316363 -0.032794 0.0
-0.321782 -0.030482 0.0
-0.327745 -0.028837 0.0
-0.334075 -0.027846 0.0
-0.340598 -0.027488 0.0
-0.347143 -0.027738 0.0
-0.353537 -0.028568 0.0
-0.359612 -0.029926 0.0
-0.365217 -0.031728 0.0
-0.370240 -0.033858 0.0
-0.374624 -0.036196 0.0
-0.378367 -0.038677 0.0
-0.381488 -0.041322 0.0
-0.383986 -0.044209 0.0
-0.385829 -0.047421 0.0
-0.386957 -0.050970 0.0
-0.387326 -0.054734 0.0
-0.386990 -0.058461 0.0
-0.386137 -0.061881 0.0
-0.385046 -0.064873 0.0
-0.383949 -0.067530 0.0
-0.382947 -0.070012 0.0
-0.382064 -0.072354 0.0
-0.381353 -0.074464 0.0
-0.380939 -0.076232 0.0
-0.380971 -0.077605 0.0
-0.381562 -0.078582 0.0
-0.382770 -0.079135 0.0
-0.384645 -0.079147 0.0
-0.387289 -0.078420 0.0
-0.390875 -0.076750 0.0
-0.395613 -0.073970 0.0
-0.401697 -0.069962 0.0
-0.409277 -0.064641 0.0
-0.418447 -0.057951 0.0
-0.429256 -0.049860 0.0
-0.441714 -0.040348 0.0
-0.455799 -0.029422 0.0
-0.471437 -0.017132 0.0
-0.488520 -0.003551 0.0
-0.506918 0.011174 0.0
-0.526693 0.026758 0.0
-0.547917 0.043158 0.0
-0.570426 0.060092 0.0
-0.594038 0.077155 0.0
-0.618611 0.093941 0.0
-0.644015 0.110114 0.0
-0.670081 0.125440 0.0
-0.696570 0.139742 0.0
-0.723186 0.152855 0.0
-0.749617 0.164604 0.0
-0.775567 0.174825 0.0
-0.800767 0.183397 0.0
-0.824978 0.190234 0.0
-0.847996 0.195283 0.0
-0.869664 0.198520 0.0
-0.889875 0.199957 0.0
-0.908573 0.199642 0.0
-0.925754 0.197661 0.0
-0.941456 0.194137 0.0
-0.955752 0.189226 0.0
-0.968739 0.183110 0.0
-0.980535 0.175987 0.0
-0.991264 0.168069 0.0
-1.001047 0.159566 0.0
-1.009996 0.150679 0.0
-1.018209 0.141582 0.0
-1.025772 0.132425 0.0
-1.032761 0.123325 0.0
-1.039237 0.114375 0.0
-1.045251 0.105639 0.0
-1.050840 0.097159 0.0
-1.056036 0.088957 0.0
-1.060860 0.081043 0.0
-1.065331 0.073416 0.0
-1.069460 0.066074 0.0
-1.073258 0.059015 0.0
-1.076733 0.052245 0.0