# vtk DataFile Version 3.0
Scalar Field
ASCII
DATASET RECTILINEAR_GRID
DIMENSIONS 200 50 1
X_COORDINATES 200 double
0.050000 0.150000 0.250000 0.350000 0.450000 0.550000 0.650000 0.750000 0.850000 0.950000 1.050000 1.150000 1.250000 1.350000 1.450000 1.550000 1.650000 1.750000 1.850000 1.950000 2.050000 2.150000 2.250000 2.350000 2.450000 2.550000 2.650000 2.750000 2.850000 2.950000 3.050000 3.150000 3.250000 3.350000 3.450000 3.550000 3.650000 3.750000 3.850000 3.950000 4.050000 4.150000 4.250000 4.350000 4.450000 4.550000 4.650000 4.750000 4.850000 4.950000 5.050000 5.150000 5.250000 5.350000 5.450000 5.550000 5.650000 5.750000 5.850000 5.950000 6.050000 6.150000 6.250000 6.350000 6.450000 6.550000 6.650000 6.750000 6.850000 6.950000 7.050000 7.150000 7.250000 7.350000 7.450000 7.550000 7.650000 7.750000 7.850000 7.950000 8.050000 8.150000 8.250000 8.350000 8.450000 8.550000 8.650000 8.750000 8.850000 8.950000 9.050000 9.150000 9.250000 9.350000 9.450000 9.550000 9.650000 9.750000 9.850000 9.950000 10.050000 10.150000 10.250000 10.350000 10.450000 10.550000 10.650000 10.750000 10.850000 10.950000 11.050000 11.150000 11.250000 11.350000 11.450000 11.550000 11.650000 11.750000 11.850000 11.950000 12.050000 12.150000 12.250000 12.350000 12.450000 12.550000 12.650000 12.750000 12.850000 12.950000 13.050000 13.150000 13.250000 13.350000 13.450000 13.550000 13.650000 13.750000 13.850000 13.950000 14.050000 14.150000 14.250000 14.350000 14.450000 14.550000 14.650000 14.750000 14.850000 14.950000 15.050000 15.150000 15.250000 15.350000 15.450000 15.550000 15.650000 15.750000 15.850000 15.950000 16.050000 16.150000 16.250000 16.350000 16.450000 16.550000 16.650000 16.750000 16.850000 16.950000 17.050000 17.150000 17.250000 17.350000 17.450000 17.550000 17.650000 17.750000 17.850000 17.950000 18.050000 18.150000 18.250000 18.350000 18.450000 18.550000 18.650000 18.750000 18.850000 18.950000 19.050000 19.150000 19.250000 19.350000 19.450000 19.550000 19.650000 19.750000 19.850000 19.950000 
Y_COORDINATES 50 double
0.050000 0.150000 0.250000 0.350000 0.450000 0.550000 0.650000 0.750000 0.850000 0.950000 1.050000 1.150000 1.250000 1.350000 1.450000 1.550000 1.650000 1.750000 1.850000 1.950000 2.050000 2.150000 2.250000 2.350000 2.450000 2.550000 2.650000 2.750000 2.850000 2.950000 3.050000 3.150000 3.250000 3.350000 3.450000 3.550000 3.650000 3.750000 3.850000 3.950000 4.050000 4.150000 4.250000 4.350000 4.450000 4.550000 4.650000 4.750000 4.850000 4.950000 
Z_COORDINATES 1 double
0.0
POINT_DATA 10000
SCALARS Skalarfeld double 1
LOOKUP_TABLE default
9.329339
9.316913
9.309839
9.305146
9.301692
9.298973
9.296736
9.294840
9.293201
9.291762
9.290490
9.289359
9.288354
9.287464
9.286682
9.286006
9.285434
9.284970
9.284617
9.284380
9.284269
9.284295
9.284470
9.284813
9.285345
9.286094
9.287091
9.288378
9.290006
9.292039
9.294555
9.297651
9.301447
9.306082
9.311715
9.318503
9.326563
9.335886
9.346188
9.356692
9.365871
9.369728
9.370625
9.387805
9.387806
0.000000
0.000000
0.000000
0.000000
0.000000
-3.152500
-3.152501
-3.155495
-3.160123
-3.162433
-3.161658
-3.159888
-3.156284
-3.149508
-3.139904
-3.128497
-3.116886
-3.107479
-3.102157
-3.101521
-3.106777
-3.119062
-3.139437
-3.168873
-3.208259
-3.258371
-3.319817
-3.392950
-3.477759
-3.573750
-3.679856
-3.794392
-3.915061
-4.039035
-4.163096
-4.283821
-4.397794
-4.501811
-4.593061
-4.669251
-4.728679
-4.770247
-4.793410
-4.798085
-4.784495
-4.753139
-4.705610
-4.643356
-4.568116
-4.481744
-4.386119
-4.283068
-4.174322
-4.061480
-3.945983
-3.829105
-3.711940
-3.595410
-3.480267
-3.367109
-3.256392
-3.148452
-3.043529
-2.941781
-2.843318
-2.748215
-2.656537
-2.568352
-2.483747
-2.402832
-2.325745
-2.252646
-2.183710
-2.119106
-2.058985
-2.003441
-1.952470
-1.905879
-1.862193
-1.822845
-1.788224
-1.757978
-1.731817
-1.709468
-1.690665
-1.675138
-1.662625
-1.652860
-1.645585
-1.640541
-1.637476
-1.636150
-1.636342
-1.637858
-1.640532
-1.644218
-1.648770
-1.654076
-1.659699
-1.665579
-1.671857
-1.678601
-1.685869
-1.693726
-1.702202
-1.711293
-1.720950
-1.731078
-1.741539
-1.752141
-1.762642
-1.772758
-1.782203
-1.790746
-1.798275
-1.804830
-1.810590
-1.815823
-1.820807
-1.825774
-1.830866
-1.836123
-1.841498
-1.846878
-1.852107
-1.857015
-1.861428
-1.865179
-1.868109
-1.870068
-1.870920
-1.870542
-1.868822
-1.865667
-1.860995
-1.854755
-1.846936
-1.837370
-1.826004
-1.812964
-1.798427
-1.782606
-1.765722
-1.747984
-1.729575
-1.710649
-1.691326
-1.671695
-1.651821
-1.631748
-1.611506
-1.591117
-1.570584
-1.549878
-1.528466
9.315264
9.311590
9.307422
9.303836
9.300869
9.298395
9.296295
9.294483
9.292898
9.291497
9.290251
9.289139
9.288147
9.287265
9.286488
9.285813
9.285241
9.284771
9.284410
9.284161
9.284034
9.284038
9.284185
9.284493
9.284980
9.285671
9.286595
9.287788
9.289296
9.291171
9.293481
9.296308
9.299750
9.303923
9.308961
9.314998
9.322143
9.330424
9.339673
9.349344
9.358119
9.364308
9.374879
9.398891
9.398892
0.000000
0.000000
0.000000
0.000000
0.000000
-3.155144
-3.155144
-3.158599
-3.163471
-3.165677
-3.163293
-3.160769
-3.157944
-3.151213
-3.141135
-3.128724
-3.116106
-3.105598
-3.098910
-3.097099
-3.101373
-3.112957
-3.132965
-3.162416
-3.202223
-3.253172
-3.315865
-3.390628
-3.477404
-3.575639
-3.684188
-3.801272
-3.924494
-4.050922
-4.177235
-4.299920
-4.415490
-4.520698
-4.612720
-4.689283
-4.748731
-4.790035
-4.812749
-4.816929
-4.802991
-4.771056
-4.722464
-4.659054
-4.582677
-4.495229
-4.398605
-4.294641
-4.185075
-4.071508
-3.955382
-3.837971
-3.720370
-3.603497
-3.488101
-3.374773
-3.263961
-3.155991
-3.051086
-2.949394
-2.851005
-2.755981
-2.664369
-2.576223
-2.491619
-2.410657
-2.333467
-2.260211
-2.191070
-2.126226
-2.065861
-2.010116
-1.959116
-1.911272
-1.867189
-1.827817
-1.793026
-1.762571
-1.736192
-1.713619
-1.694584
-1.678819
-1.666059
-1.656045
-1.648521
-1.643236
-1.639945
-1.638414
-1.638423
-1.639777
-1.642299
-1.645818
-1.650133
-1.654912
-1.660146
-1.665857
-1.672170
-1.678950
-1.686232
-1.694116
-1.702612
-1.711720
-1.721388
-1.731529
-1.742008
-1.752641
-1.763180
-1.773327
-1.782774
-1.791275
-1.798712
-1.805138
-1.810754
-1.815856
-1.820747
-1.825673
-1.830781
-1.836105
-1.841585
-1.847091
-1.852456
-1.857497
-1.862037
-1.865906
-1.868945
-1.871006
-1.871952
-1.871661
-1.870021
-1.866935
-1.862313
-1.856092
-1.848248
-1.838656
-1.827257
-1.814162
-1.799560
-1.783672
-1.766724
-1.748931
-1.730478
-1.711517
-1.692169
-1.672520
-1.652632
-1.632543
-1.612275
-1.591828
-1.571168
-1.550175
-1.527759
9.307959
9.306596
9.304233
9.301726
9.299383
9.297279
9.295409
9.293745
9.292260
9.290927
9.289729
9.288649
9.287677
9.286807
9.286033
9.285352
9.284766
9.284276
9.283883
9.283595
9.283415
9.283353
9.283418
9.283623
9.283980
9.284507
9.285222
9.286147
9.287307
9.288727
9.290435
9.292461
9.294833
9.297575
9.300701
9.304212
9.308084
9.312281
9.316794
9.321835
9.328485
9.340989
9.370690
9.425187
9.425187
0.000000
0.000000
0.000000
0.000000
0.000000
-3.154932
-3.154932
-3.159657
-3.164507
-3.167694
-3.166964
-3.165634
-3.163343
-3.157132
-3.145532
-3.130247
-3.115473
-3.103122
-3.093970
-3.089333
-3.091088
-3.100821
-3.119818
-3.149224
-3.190033
-3.243045
-3.308808
-3.387533
-3.478995
-3.582430
-3.696463
-3.819072
-3.947623
-4.078964
-4.209585
-4.335825
-4.454105
-4.561146
-4.654152
-4.730935
-4.789961
-4.830352
-4.851846
-4.854757
-4.838642
-4.804421
-4.753612
-4.687982
-4.609425
-4.519884
-4.421290
-4.315510
-4.204295
-4.089261
-3.971857
-3.853359
-3.734861
-3.617280
-3.501356
-3.387666
-3.276642
-3.168588
-3.063701
-2.962099
-2.863842
-2.768961
-2.677472
-2.589403
-2.504806
-2.423765
-2.346402
-2.272869
-2.203376
-2.138106
-2.077292
-2.021097
-1.968871
-1.919948
-1.875699
-1.836099
-1.801025
-1.770270
-1.743585
-1.720705
-1.701358
-1.685275
-1.672197
-1.661870
-1.654049
-1.648495
-1.644969
-1.643239
-1.643078
-1.644273
-1.646620
-1.649924
-1.653988
-1.658617
-1.663727
-1.669274
-1.675168
-1.681657
-1.688877
-1.696744
-1.705158
-1.714158
-1.723684
-1.733656
-1.743942
-1.754359
-1.764662
-1.774568
-1.783794
-1.792119
-1.799449
-1.805839
-1.811482
-1.816652
-1.821634
-1.826656
-1.831857
-1.837267
-1.842825
-1.848402
-1.853833
-1.858937
-1.863540
-1.867473
-1.870581
-1.872715
-1.873740
-1.873531
-1.871969
-1.868948
-1.864364
-1.858131
-1.850204
-1.840645
-1.829188
-1.816013
-1.801332
-1.785380
-1.768389
-1.750571
-1.732110
-1.713156
-1.693825
-1.674198
-1.654333
-1.634262
-1.613998
-1.593534
-1.572825
-1.551749
-1.529168
9.303252
9.302607
9.301193
9.299455
9.297658
9.295927
9.294311
9.292823
9.291459
9.290213
9.289073
9.288034
9.287087
9.286228
9.285455
9.284764
9.284157
9.283634
9.283198
9.282850
9.282597
9.282441
9.282390
9.282449
9.282625
9.282923
9.283348
9.283900
9.284574
9.285358
9.286222
9.287115
9.287951
9.288597
9.288848
9.288404
9.286857
9.283701
9.278484
9.271332
9.264558
9.266627
9.297421
9.378263
9.378263
0.000000
0.000000
0.000000
0.000000
0.000000
-3.148355
-3.148356
-3.154775
-3.161897
-3.168002
-3.172394
-3.175872
-3.177439
-3.172822
-3.156419
-3.132743
-3.114138
-3.099813
-3.087007
-3.077443
-3.075005
-3.081820
-3.099257
-3.128611
-3.170967
-3.227101
-3.297438
-3.381982
-3.480231
-3.591101
-3.712873
-3.843183
-3.979074
-4.117106
-4.253531
-4.384514
-4.506370
-4.615801
-4.710075
-4.787128
-4.845598
-4.884788
-4.904613
-4.905546
-4.886708
-4.849637
-4.795881
-4.727257
-4.645730
-4.553317
-4.452007
-4.343709
-4.230205
-4.113127
-3.993938
-3.873918
-3.754163
-3.635586
-3.518917
-3.404719
-3.293399
-3.185231
-3.080377
-2.978912
-2.880853
-2.786187
-2.694887
-2.606942
-2.522371
-2.441235
-2.363649
-2.289730
-2.219749
-2.153880
-2.092419
-2.034830
-1.981069
-1.931805
-1.887193
-1.847227
-1.811789
-1.780677
-1.753637
-1.730393
-1.710664
-1.694177
-1.680676
-1.669922
-1.661691
-1.655761
-1.651911
-1.649916
-1.649545
-1.650566
-1.652755
-1.655894
-1.659786
-1.664265
-1.669232
-1.674636
-1.680463
-1.686789
-1.693636
-1.701120
-1.709399
-1.718316
-1.727702
-1.737487
-1.747528
-1.757638
-1.767593
-1.777145
-1.786062
-1.794169
-1.801399
-1.807805
-1.813551
-1.818867
-1.823991
-1.829122
-1.834378
-1.839793
-1.845316
-1.850834
-1.856198
-1.861242
-1.865795
-1.869696
-1.872787
-1.874921
-1.875958
-1.875767
-1.874224
-1.871211
-1.866614
-1.860328
-1.852248
-1.842635
-1.831111
-1.817888
-1.803198
-1.787276
-1.770346
-1.752614
-1.734253
-1.715404
-1.696175
-1.676644
-1.656861
-1.636860
-1.616657
-1.596263
-1.575692
-1.554988
-1.533493
9.299759
9.299389
9.298478
9.297245
9.295869
9.294463
9.293089
9.291778
9.290545
9.289393
9.288321
9.287328
9.286410
9.285566
9.284794
9.284093
9.283462
9.282903
9.282416
9.282004
9.281667
9.281407
9.281227
9.281126
9.281102
9.281151
9.281261
9.281413
9.281573
9.281686
9.281663
9.281367
9.280587
9.279002
9.276125
9.271230
9.263242
9.250597
9.231097
9.201923
9.160379
9.107273
9.057647
9.061946
9.061947
0.000000
0.000000
0.000000
0.000000
0.000000
-3.140516
-3.140516
-3.148267
-3.158955
-3.170589
-3.182385
-3.194356
-3.205070
-3.206800
-3.177604
-3.130898
-3.109301
-3.096270
-3.078111
-3.059819
-3.051504
-3.054821
-3.070479
-3.100009
-3.144568
-3.204820
-3.280979
-3.372768
-3.479347
-3.599253
-3.730374
-3.869961
-4.014695
-4.160815
-4.304297
-4.441094
-4.567397
-4.679878
-4.775873
-4.853471
-4.911504
-4.949473
-4.967447
-4.965993
-4.944255
-4.903945
-4.846707
-4.774478
-4.689348
-4.593438
-4.488819
-4.377454
-4.261163
-4.141599
-4.020236
-3.898361
-3.777074
-3.657281
-3.539703
-3.424887
-3.313216
-3.204928
-3.100139
-2.998869
-2.901080
-2.806704
-2.715661
-2.627885
-2.543359
-2.462085
-2.384226
-2.309774
-2.239158
-2.172407
-2.109097
-2.050246
-1.995774
-1.945918
-1.900797
-1.860397
-1.824591
-1.793158
-1.765819
-1.742265
-1.722185
-1.705287
-1.691314
-1.680039
-1.671265
-1.664808
-1.660481
-1.658084
-1.657395
-1.658178
-1.660187
-1.663184
-1.666955
-1.671328
-1.676185
-1.681470
-1.687175
-1.693347
-1.700036
-1.707303
-1.715190
-1.723770
-1.733017
-1.742689
-1.752575
-1.762475
-1.772173
-1.781449
-1.790111
-1.798026
-1.805153
-1.811545
-1.817343
-1.822738
-1.827927
-1.833076
-1.838287
-1.843592
-1.848950
-1.854270
-1.859419
-1.864248
-1.868597
-1.872310
-1.875229
-1.877207
-1.878100
-1.877772
-1.876098
-1.872961
-1.868252
-1.861871
-1.853733
-1.843813
-1.832270
-1.819139
-1.804625
-1.788937
-1.772281
-1.754839
-1.736767
-1.718193
-1.699212
-1.679896
-1.660291
-1.640432
-1.620346
-1.600074
-1.579704
-1.559447
-1.538953
9.296955
9.296714
9.296085
9.295180
9.294113
9.292968
9.291805
9.290660
9.289553
9.288495
9.287493
9.286549
9.285663
9.284835
9.284065
9.283353
9.282699
9.282103
9.281564
9.281084
9.280662
9.280296
9.279985
9.279723
9.279502
9.279308
9.279118
9.278894
9.278580
9.278089
9.277283
9.275956
9.273791
9.270301
9.264740
9.255942
9.242069
9.220145
9.185173
9.128298
9.032632
8.862910
8.539901
8.162712
2.937185
-3.949255
-3.804561
-3.799738
-3.793076
-3.724202
-3.342388
-3.135430
-3.142782
-3.159186
-3.178613
-3.199511
-3.222969
-3.251224
-3.281445
-3.219947
-3.107737
-3.097147
-3.098526
-3.069688
-3.033513
-3.018816
-3.019247
-3.033146
-3.063308
-3.110905
-3.176284
-3.259353
-3.359511
-3.475554
-3.605624
-3.747210
-3.897170
-4.051818
-4.207052
-4.358550
-4.502025
-4.633514
-4.749651
-4.847851
-4.926367
-4.984238
-5.021154
-5.037328
-5.033409
-5.008783
-4.964950
-4.903778
-4.827425
-4.738163
-4.638255
-4.529872
-4.415041
-4.295614
-4.173263
-4.049469
-3.925523
-3.802525
-3.681378
-3.562795
-3.447306
-3.335272
-3.226896
-3.122245
-3.021272
-2.923862
-2.829889
-2.739212
-2.651675
-2.567259
-2.485788
-2.407668
-2.332300
-2.260157
-2.191900
-2.127536
-2.067487
-2.011992
-1.961276
-1.915463
-1.874542
-1.838375
-1.806710
-1.779221
-1.755538
-1.735290
-1.718135
-1.703785
-1.692013
-1.682646
-1.675548
-1.670587
-1.667614
-1.666445
-1.666856
-1.668596
-1.671409
-1.675057
-1.679341
-1.684123
-1.689324
-1.694927
-1.700963
-1.707492
-1.714580
-1.722275
-1.730578
-1.739500
-1.748999
-1.758822
-1.768647
-1.778249
-1.787410
-1.795952
-1.803763
-1.810813
-1.817157
-1.822921
-1.828274
-1.833386
-1.838404
-1.843421
-1.848468
-1.853518
-1.858492
-1.863275
-1.867730
-1.871709
-1.875059
-1.877628
-1.879268
-1.879838
-1.879203
-1.877240
-1.873837
-1.868893
-1.862321
-1.854051
-1.844047
-1.832560
-1.819676
-1.805534
-1.790300
-1.774142
-1.757212
-1.739643
-1.721540
-1.702984
-1.684032
-1.664725
-1.645093
-1.625166
-1.604996
-1.584685
-1.564455
-1.543676
9.294599
9.294428
9.293967
9.293279
9.292434
9.291493
9.290505
9.289504
9.288513
9.287545
9.286611
9.285715
9.284860
9.284049
9.283282
9.282559
9.281881
9.281248
9.280658
9.280111
9.279604
9.279135
9.278697
9.278283
9.277878
9.277463
9.277006
9.276461
9.275757
9.274788
9.273393
9.271328
9.268219
9.263490
9.256239
9.245022
9.227471
9.199535
9.153876
9.076059
8.934138
8.644527
7.942333
5.515057
-2.288342
-3.949256
-3.804561
-3.799739
-3.793077
-3.724202
-3.549348
-3.329255
-3.270755
-3.256474
-3.252127
-3.253891
-3.264417
-3.287824
-3.320022
-3.246966
-3.037059
-3.083922
-3.132485
-3.068035
-2.989869
-2.975870
-2.976356
-2.987653
-3.019099
-3.070819
-3.142341
-3.233242
-3.342614
-3.468881
-3.609805
-3.762490
-3.923418
-4.088558
-4.253491
-4.413599
-4.564341
-4.701588
-4.821926
-4.922846
-5.002767
-5.060918
-5.097143
-5.111746
-5.105475
-5.077850
-5.030117
-4.964526
-4.883551
-4.789703
-4.685414
-4.572965
-4.454438
-4.331708
-4.206450
-4.080140
-3.954064
-3.829317
-3.706800
-3.587214
-3.471079
-3.358739
-3.250370
-3.145995
-3.045502
-2.948664
-2.855299
-2.765226
-2.678080
-2.594054
-2.512162
-2.432938
-2.356635
-2.283445
-2.213758
-2.147910
-2.086328
-2.029390
-1.977402
-1.930548
-1.888858
-1.852199
-1.820297
-1.792767
-1.769157
-1.749003
-1.731873
-1.717405
-1.705332
-1.695482
-1.687755
-1.682088
-1.678407
-1.676596
-1.676476
-1.677811
-1.680338
-1.683797
-1.687960
-1.692658
-1.697789
-1.703315
-1.709253
-1.715660
-1.722605
-1.730149
-1.738318
-1.747095
-1.756370
-1.766051
-1.775892
-1.785531
-1.794731
-1.803302
-1.811123
-1.818162
-1.824463
-1.830142
-1.835352
-1.840254
-1.844988
-1.849650
-1.854281
-1.858866
-1.863342
-1.867607
-1.871537
-1.874991
-1.877822
-1.879883
-1.881031
-1.881128
-1.880049
-1.877679
-1.873917
-1.868681
-1.861904
-1.853545
-1.843592
-1.832323
-1.819824
-1.806199
-1.791574
-1.776078
-1.759829
-1.742930
-1.725460
-1.707480
-1.689030
-1.670136
-1.650814
-1.631080
-1.610959
-1.590505
-1.569815
-1.547657
9.292560
9.292430
9.292077
9.291536
9.290851
9.290067
9.289220
9.288341
9.287450
9.286563
9.285691
9.284841
9.284016
9.283221
9.282456
9.281723
9.281022
9.280352
9.279712
9.279100
9.278512
9.277945
9.277389
9.276836
9.276267
9.275661
9.274984
9.274186
9.273195
9.271905
9.270157
9.267713
9.264209
9.259086
9.251461
9.239908
9.222053
9.193770
9.147491
9.068334
8.924409
8.635487
7.979214
6.221768
-0.186853
-3.016112
-3.640484
-3.802776
-3.870296
-3.905991
-3.912590
-3.905518
-3.849572
-3.766047
-3.680104
-3.600315
-3.532227
-3.474424
-3.406223
-3.266341
-3.113872
-3.119541
-3.132439
-3.038307
-2.911544
-2.929191
-2.931800
-2.934361
-2.968872
-3.026242
-3.104750
-3.204099
-3.323173
-3.460014
-3.612010
-3.775921
-3.947866
-4.123536
-4.298264
-4.467179
-4.625487
-4.768883
-4.893872
-4.998007
-5.079829
-5.138725
-5.174638
-5.187852
-5.179171
-5.148056
-5.095823
-5.025245
-4.939180
-4.840402
-4.731519
-4.614914
-4.492700
-4.366751
-4.238718
-4.110055
-3.982025
-3.855706
-3.731989
-3.611562
-3.494940
-3.382462
-3.274280
-3.170394
-3.070652
-2.974659
-2.882193
-2.793204
-2.706505
-2.622386
-2.540585
-2.461098
-2.384062
-2.309740
-2.238529
-2.170903
-2.107392
-2.048514
-1.994709
-1.946277
-1.903339
-1.865812
-1.833427
-1.805754
-1.782260
-1.762370
-1.745528
-1.731255
-1.719192
-1.709118
-1.700935
-1.694632
-1.690221
-1.687677
-1.686897
-1.687693
-1.689813
-1.692982
-1.696948
-1.701511
-1.706545
-1.711991
-1.717854
-1.724181
-1.731041
-1.738498
-1.746588
-1.755296
-1.764538
-1.774160
-1.783987
-1.793748
-1.803096
-1.811814
-1.819756
-1.826863
-1.833163
-1.838751
-1.843770
-1.848376
-1.852712
-1.856886
-1.860957
-1.864929
-1.868759
-1.872365
-1.875632
-1.878430
-1.880618
-1.882056
-1.882606
-1.882138
-1.880539
-1.877706
-1.873558
-1.868034
-1.861094
-1.852726
-1.842945
-1.832010
-1.819988
-1.806964
-1.793032
-1.778288
-1.762815
-1.746685
-1.729952
-1.712651
-1.694801
-1.676409
-1.657469
-1.637968
-1.617888
-1.597199
-1.575845
-1.552032
9.290760
9.290658
9.290376
9.289936
9.289368
9.288703
9.287968
9.287189
9.286384
9.285568
9.284752
9.283942
9.283145
9.282364
9.281601
9.280857
9.280133
9.279428
9.278740
9.278066
9.277403
9.276745
9.276082
9.275404
9.274695
9.273931
9.273082
9.272102
9.270929
9.269473
9.267605
9.265134
9.261777
9.257101
9.250429
9.240677
9.226040
9.203396
9.167060
9.104015
8.983040
8.722767
8.056084
5.652053
-2.186405
-3.934997
-3.837555
-3.896678
-4.007034
-4.188707
-4.438065
-4.771322
-4.737193
-4.577809
-4.408099
-4.234857
-4.065842
-3.891969
-3.700619
-3.485426
-3.295934
-3.184808
-3.096769
-2.982522
-2.904314
-2.896240
-2.874672
-2.874067
-2.916693
-2.980806
-3.066177
-3.174009
-3.302816
-3.450104
-3.612876
-3.787645
-3.970086
-4.155753
-4.339843
-4.517321
-4.683098
-4.832700
-4.962493
-5.070101
-5.154101
-5.213983
-5.249745
-5.261442
-5.249882
-5.214299
-5.156793
-5.080684
-4.989216
-4.885390
-4.771961
-4.651402
-4.525815
-4.397032
-4.266661
-4.136110
-4.006600
-3.879179
-3.754711
-3.633838
-3.517088
-3.404807
-3.297121
-3.194027
-3.095437
-3.000527
-2.909175
-2.821119
-2.735624
-2.652408
-2.571186
-2.491848
-2.414454
-2.339243
-2.266630
-2.197167
-2.131501
-2.070297
-2.014165
-1.963571
-1.918779
-1.879812
-1.846451
-1.818261
-1.794652
-1.774945
-1.758456
-1.744565
-1.732779
-1.722776
-1.714404
-1.707661
-1.702622
-1.699358
-1.697868
-1.698037
-1.699650
-1.702433
-1.706115
-1.710471
-1.715352
-1.720685
-1.726468
-1.732740
-1.739568
-1.747014
-1.755113
-1.763851
-1.773151
-1.782869
-1.792798
-1.802691
-1.812256
-1.821199
-1.829343
-1.836593
-1.842946
-1.848472
-1.853298
-1.857574
-1.861449
-1.865047
-1.868450
-1.871691
-1.874751
-1.877571
-1.880057
-1.882092
-1.883545
-1.884283
-1.884175
-1.883103
-1.880962
-1.877668
-1.873156
-1.867387
-1.860347
-1.852047
-1.842526
-1.831988
-1.820491
-1.808106
-1.794902
-1.780945
-1.766289
-1.750975
-1.735029
-1.718463
-1.701274
-1.683445
-1.664949
-1.645742
-1.625759
-1.604900
-1.582995
-1.557891
9.289148
9.289065
9.288832
9.288465
9.287983
9.287408
9.286762
9.286064
9.285331
9.284574
9.283806
9.283032
9.282259
9.281490
9.280728
9.279973
9.279227
9.278488
9.277755
9.277024
9.276291
9.275550
9.274792
9.274006
9.273177
9.272286
9.271308
9.270208
9.268940
9.267447
9.265646
9.263428
9.260639
9.257056
9.252351
9.246008
9.237186
9.224421
9.204504
9.170455
9.107451
8.978977
8.694783
8.317831
3.065714
-3.934996
-3.837554
-3.896678
-4.007033
-4.188707
-5.003333
-5.568601
-5.297431
-5.145432
-5.015290
-4.844223
-4.659825
-4.435304
-4.164551
-3.865033
-3.579194
-3.341304
-3.147848
-2.991870
-2.894246
-2.851058
-2.831318
-2.839785
-2.876007
-2.940163
-3.032343
-3.148385
-3.285841
-3.442158
-3.614165
-3.798138
-3.989913
-4.184489
-4.376969
-4.562320
-4.734900
-4.890175
-5.024186
-5.134928
-5.220839
-5.281503
-5.316964
-5.326490
-5.311134
-5.269956
-5.206562
-5.124687
-5.027884
-4.919271
-4.801684
-4.677710
-4.549354
-4.418384
-4.286355
-4.154623
-4.024364
-3.896585
-3.772141
-3.651476
-3.535209
-3.423689
-3.317009
-3.215093
-3.117715
-3.024408
-2.934785
-2.848348
-2.764486
-2.682716
-2.602647
-2.524045
-2.446869
-2.371290
-2.297695
-2.226665
-2.158933
-2.095303
-2.036562
-1.983375
-1.936198
-1.895208
-1.860290
-1.831047
-1.806868
-1.787004
-1.770658
-1.757080
-1.745635
-1.735869
-1.727531
-1.720570
-1.715078
-1.711198
-1.709028
-1.708549
-1.709602
-1.711933
-1.715262
-1.719342
-1.724007
-1.729180
-1.734854
-1.741076
-1.747910
-1.755415
-1.763620
-1.772502
-1.781977
-1.791899
-1.802058
-1.812204
-1.822034
-1.831253
-1.839650
-1.847097
-1.853554
-1.859060
-1.863717
-1.867667
-1.871061
-1.874041
-1.876712
-1.879137
-1.881333
-1.883268
-1.884877
-1.886060
-1.886706
-1.886690
-1.885895
-1.884209
-1.881541
-1.877817
-1.872989
-1.867034
-1.859957
-1.851786
-1.842574
-1.832467
-1.821521
-1.809791
-1.797327
-1.784168
-1.770342
-1.755862
-1.740728
-1.724928
-1.708437
-1.691221
-1.673229
-1.654393
-1.634618
-1.613763
-1.591609
-1.565904
9.287691
9.287621
9.287423
9.287108
9.286690
9.286185
9.285608
9.284975
9.284300
9.283594
9.282865
9.282122
9.281369
9.280610
9.279847
9.279082
9.278315
9.277544
9.276768
9.275984
9.275188
9.274372
9.273529
9.272649
9.271721
9.270728
9.269654
9.268477
9.267175
9.265723
9.264098
9.262285
9.260279
9.258104
9.255826
9.253578
9.251573
9.250082
9.249373
9.249460
9.249232
9.245806
9.237380
9.243196
9.243196
0.000000
0.000000
0.000000
0.000000
0.000000
-5.427416
-5.427417
-5.377602
-5.408894
-5.313735
-5.204519
-5.106031
-4.919460
-4.633811
-4.276229
-3.900434
-3.554897
-3.265968
-3.045800
-2.901307
-2.823535
-2.794904
-2.805950
-2.848080
-2.916247
-3.010114
-3.130288
-3.274269
-3.438160
-3.618138
-3.810054
-4.009333
-4.210977
-4.409804
-4.600514
-4.777888
-4.937328
-5.075094
-5.187935
-5.274602
-5.334811
-5.368771
-5.375629
-5.355349
-5.308219
-5.239005
-5.151784
-5.050301
-4.937831
-4.817134
-4.690502
-4.560062
-4.427573
-4.294553
-4.162324
-4.032028
-3.904627
-3.780887
-3.661349
-3.546474
-3.436541
-3.331612
-3.231578
-3.136177
-3.044992
-2.957539
-2.873240
-2.791466
-2.711638
-2.633265
-2.556004
-2.479699
-2.404424
-2.330491
-2.258456
-2.189081
-2.123273
-2.061977
-2.006064
-1.956206
-1.912781
-1.875823
-1.845022
-1.819780
-1.799302
-1.782711
-1.769144
-1.757851
-1.748255
-1.739995
-1.732936
-1.727135
-1.722763
-1.719992
-1.718891
-1.719375
-1.721226
-1.724161
-1.727919
-1.732320
-1.737284
-1.742817
-1.748976
-1.755836
-1.763456
-1.771855
-1.780995
-1.790774
-1.801026
-1.811533
-1.822033
-1.832243
-1.841826
-1.850511
-1.858191
-1.864793
-1.870319
-1.874842
-1.878491
-1.881414
-1.883765
-1.885674
-1.887236
-1.888502
-1.889478
-1.890130
-1.890389
-1.890164
-1.889351
-1.887843
-1.885542
-1.882364
-1.878248
-1.873155
-1.867073
-1.860014
-1.852017
-1.843136
-1.833483
-1.823116
-1.812062
-1.800353
-1.788007
-1.775025
-1.761396
-1.747096
-1.732092
-1.716343
-1.699794
-1.682381
-1.664019
-1.644595
-1.623956
-1.601892
-1.576260
9.286365
9.286303
9.286132
9.285856
9.285485
9.285033
9.284510
9.283929
9.283301
9.282636
9.281941
9.281222
9.280485
9.279733
9.278969
9.278193
9.277405
9.276605
9.275791
9.274958
9.274103
9.273220
9.272303
9.271341
9.270327
9.269250
9.268100
9.266869
9.265555
9.264167
9.262736
9.261330
9.260084
9.259241
9.259220
9.260719
9.264852
9.273305
9.288747
9.315675
9.358688
9.423034
9.510426
9.610767
9.610768
0.000000
0.000000
0.000000
0.000000
0.000000
-5.366764
-5.366764
-5.365027
-5.381688
-5.358410
-5.401719
-5.368895
-5.269027
-5.006691
-4.616008
-4.172349
-3.744363
-3.377004
-3.093763
-2.901705
-2.793245
-2.752816
-2.764557
-2.814494
-2.893052
-2.995746
-3.121576
-3.270168
-3.439458
-3.625570
-3.823806
-4.029130
-4.236255
-4.439751
-4.634200
-4.814414
-4.975700
-5.114125
-5.226771
-5.312097
-5.369659
-5.399795
-5.402871
-5.376781
-5.323805
-5.249587
-5.158078
-5.053060
-4.937787
-4.814959
-4.686828
-4.555353
-4.422230
-4.288963
-4.156890
-4.027177
-3.900802
-3.778530
-3.660907
-3.548303
-3.440898
-3.338672
-3.241444
-3.148884
-3.060540
-2.975866
-2.894239
-2.815009
-2.737551
-2.661324
-2.585912
-2.511075
-2.436780
-2.363239
-2.290929
-2.220584
-2.153147
-2.089681
-2.031237
-1.978709
-1.932703
-1.893443
-1.860746
-1.834064
-1.812584
-1.795356
-1.781427
-1.769950
-1.760257
-1.751904
-1.744679
-1.738585
-1.733778
-1.730463
-1.728776
-1.728703
-1.730065
-1.732587
-1.735998
-1.740105
-1.744830
-1.750193
-1.756276
-1.763172
-1.770945
-1.779607
-1.789100
-1.799298
-1.810007
-1.820986
-1.831955
-1.842621
-1.852688
-1.861779
-1.869723
-1.876508
-1.882092
-1.886521
-1.889903
-1.892382
-1.894118
-1.895261
-1.895937
-1.896233
-1.896195
-1.895827
-1.895095
-1.893938
-1.892276
-1.890020
-1.887088
-1.883406
-1.878920
-1.873597
-1.867431
-1.860439
-1.852658
-1.844143
-1.834961
-1.825202
-1.814859
-1.803938
-1.792434
-1.780327
-1.767582
-1.754158
-1.740003
-1.725062
-1.709269
-1.692546
-1.674796
-1.655896
-1.635695
-1.614012
-1.588885
9.285151
9.285097
9.284944
9.284697
9.284363
9.283951
9.283470
9.282930
9.282340
9.281708
9.281039
9.280341
9.279617
9.278870
9.278103
9.277316
9.276509
9.275681
9.274831
9.273954
9.273047
9.272104
9.271119
9.270085
9.268995
9.267842
9.266623
9.265340
9.264004
9.262650
9.261344
9.260214
9.259486
9.259550
9.261057
9.265075
9.273296
9.288289
9.313687
9.354599
9.417930
9.507336
9.616771
9.718775
9.718776
0.000000
0.000000
0.000000
0.000000
0.000000
-5.323022
-5.323022
-5.344606
-5.380437
-5.400962
-5.442396
-5.538544
-5.475749
-5.252844
-4.829374
-4.331033
-3.842129
-3.416289
-3.083627
-2.855071
-2.725536
-2.679433
-2.697200
-2.760407
-2.855224
-2.973538
-3.111888
-3.269237
-3.444691
-3.635943
-3.838999
-4.048785
-4.259765
-4.466285
-4.662784
-4.843987
-5.005140
-5.142289
-5.252564
-5.334360
-5.387280
-5.412034
-5.409817
-5.375655
-5.317033
-5.238217
-5.143379
-5.036200
-4.919705
-4.796323
-4.668062
-4.536683
-4.403795
-4.270908
-4.139425
-4.010609
-3.885529
-3.765019
-3.649659
-3.539788
-3.435506
-3.336697
-3.243065
-3.154168
-3.069445
-2.988254
-2.909904
-2.833705
-2.759017
-2.685295
-2.612115
-2.539204
-2.466461
-2.393999
-2.322186
-2.251666
-2.183353
-2.118357
-2.057866
-2.002976
-1.954524
-1.912951
-1.878241
-1.849933
-1.827220
-1.809095
-1.794514
-1.782538
-1.772428
-1.763689
-1.756068
-1.749536
-1.744225
-1.740344
-1.738065
-1.737424
-1.738282
-1.740376
-1.743424
-1.747222
-1.751691
-1.756871
-1.762871
-1.769807
-1.777756
-1.786725
-1.796636
-1.807336
-1.818599
-1.830156
-1.841705
-1.852931
-1.863525
-1.873181
-1.881513
-1.888542
-1.894233
-1.898612
-1.901772
-1.903846
-1.904997
-1.905391
-1.905179
-1.904486
-1.903397
-1.901957
-1.900174
-1.898021
-1.895450
-1.892396
-1.888795
-1.884586
-1.879724
-1.874183
-1.867958
-1.861064
-1.853535
-1.845416
-1.836753
-1.827620
-1.818041
-1.807954
-1.797338
-1.786152
-1.774347
-1.761866
-1.748649
-1.734630
-1.719733
-1.703869
-1.686930
-1.668780
-1.649261
-1.628207
-1.603751
9.284039
9.283989
9.283850
9.283625
9.283318
9.282938
9.282490
9.281982
9.281421
9.280815
9.280168
9.279486
9.278771
9.278027
9.277256
9.276458
9.275633
9.274780
9.273896
9.272979
9.272025
9.271027
9.269982
9.268882
9.267722
9.266498
9.265208
9.263858
9.262469
9.261080
9.259773
9.258694
9.258095
9.258408
9.260349
9.265088
9.274485
9.291402
9.319992
9.365701
9.433807
9.526356
9.634620
9.730101
9.730102
0.000000
0.000000
0.000000
0.000000
0.000000
-5.308956
-5.308957
-5.370603
-5.454600
-5.525659
-5.571823
-5.600185
-5.528019
-5.314110
-4.883165
-4.340853
-3.812268
-3.348356
-2.982790
-2.731873
-2.593867
-2.553061
-2.586710
-2.672019
-2.790956
-2.932059
-3.089644
-3.261660
-3.447333
-3.645377
-3.853071
-4.066221
-4.279633
-4.487681
-4.684719
-4.865374
-5.024824
-5.159090
-5.265307
-5.341896
-5.388626
-5.406534
-5.397058
-5.354940
-5.290222
-5.207379
-5.110466
-5.002779
-4.886838
-4.764580
-4.637625
-4.507483
-4.375670
-4.243721
-4.113148
-3.985354
-3.861554
-3.742708
-3.629486
-3.522258
-3.421108
-3.325860
-3.236120
-3.151315
-3.070738
-2.993597
-2.919070
-2.846372
-2.774827
-2.703901
-2.633219
-2.562544
-2.491773
-2.420956
-2.350346
-2.280461
-2.212116
-2.146397
-2.084560
-2.027857
-1.977341
-1.933683
-1.897060
-1.867135
-1.843138
-1.824023
-1.808656
-1.795999
-1.785237
-1.775838
-1.767546
-1.760333
-1.754337
-1.749769
-1.746820
-1.745552
-1.745857
-1.747484
-1.750142
-1.753616
-1.757824
-1.762822
-1.768742
-1.775726
-1.783863
-1.793155
-1.803510
-1.814745
-1.826609
-1.838802
-1.851002
-1.862877
-1.874106
-1.884395
-1.893377
-1.900708
-1.906565
-1.910955
-1.913951
-1.915676
-1.916290
-1.915971
-1.914892
-1.913212
-1.911054
-1.908508
-1.905623
-1.902415
-1.898869
-1.894954
-1.890626
-1.885845
-1.880576
-1.874800
-1.868514
-1.861732
-1.854479
-1.846790
-1.838694
-1.830215
-1.821416
-1.812202
-1.802517
-1.792310
-1.781521
-1.770088
-1.757943
-1.745016
-1.731225
-1.716465
-1.700611
-1.683504
-1.664963
-1.644793
-1.621086
9.283017
9.282971
9.282843
9.282634
9.282348
9.281991
9.281569
9.281086
9.280549