# vtk DataFile Version 3.0
Vector Field
ASCII
DATASET RECTILINEAR_GRID
DIMENSIONS 200 50 1
X_COORDINATES 200 double
0.050000 0.150000 0.250000 0.350000 0.450000 0.550000 0.650000 0.750000 0.850000 0.950000 1.050000 1.150000 1.250000 1.350000 1.450000 1.550000 1.650000 1.750000 1.850000 1.950000 2.050000 2.150000 2.250000 2.350000 2.450000 2.550000 2.650000 2.750000 2.850000 2.950000 3.050000 3.150000 3.250000 3.350000 3.450000 3.550000 3.650000 3.750000 3.850000 3.950000 4.050000 4.150000 4.250000 4.350000 4.450000 4.550000 4.650000 4.750000 4.850000 4.950000 5.050000 5.150000 5.250000 5.350000 5.450000 5.550000 5.650000 5.750000 5.850000 5.950000 6.050000 6.150000 6.250000 6.350000 6.450000 6.550000 6.650000 6.750000 6.850000 6.950000 7.050000 7.150000 7.250000 7.350000 7.450000 7.550000 7.650000 7.750000 7.850000 7.950000 8.050000 8.150000 8.250000 8.350000 8.450000 8.550000 8.650000 8.750000 8.850000 8.950000 9.050000 9.150000 9.250000 9.350000 9.450000 9.550000 9.650000 9.750000 9.850000 9.950000 10.050000 10.150000 10.250000 10.350000 10.450000 10.550000 10.650000 10.750000 10.850000 10.950000 11.050000 11.150000 11.250000 11.350000 11.450000 11.550000 11.650000 11.750000 11.850000 11.950000 12.050000 12.150000 12.250000 12.350000 12.450000 12.550000 12.650000 12.750000 12.850000 12.950000 13.050000 13.150000 13.250000 13.350000 13.450000 13.550000 13.650000 13.750000 13.850000 13.950000 14.050000 14.150000 14.250000 14.350000 14.450000 14.550000 14.650000 14.750000 14.850000 14.950000 15.050000 15.150000 15.250000 15.350000 15.450000 15.550000 15.650000 15.750000 15.850000 15.950000 16.050000 16.150000 16.250000 16.350000 16.450000 16.550000 16.650000 16.750000 16.850000 16.950000 17.050000 17.150000 17.250000 17.350000 17.450000 17.550000 17.650000 17.750000 17.850000 17.950000 18.050000 18.150000 18.250000 18.350000 18.450000 18.550000 18.650000 18.750000 18.850000 18.950000 19.050000 19.150000 19.250000 19.350000 19.450000 19.550000 19.650000 19.750000 19.850000 19.950000 
Y_COORDINATES 50 double
0.050000 0.150000 0.250000 0.350000 0.450000 0.550000 0.650000 0.750000 0.850000 0.950000 1.050000 1.150000 1.250000 1.350000 1.450000 1.550000 1.650000 1.750000 1.850000 1.950000 2.050000 2.150000 2.250000 2.350000 2.450000 2.550000 2.650000 2.750000 2.850000 2.950000 3.050000 3.150000 3.250000 3.350000 3.450000 3.550000 3.650000 3.750000 3.850000 3.950000 4.050000 4.150000 4.250000 4.350000 4.450000 4.550000 4.650000 4.750000 4.850000 4.950000 
Z_COORDINATES 1 double
0.0
POINT_DATA 10000
VECTORS Vektorfeld double
0.996415 0.003585 0.0
0.986621 0.006210 0.0
0.973084 0.007327 0.0
0.957888 0.007870 0.0
0.941859 0.008159 0.0
0.925377 0.008323 0.0
0.908641 0.008414 0.0
0.891765 0.008462 0.0
0.874823 0.008480 0.0
0.857864 0.008479 0.0
0.840919 0.008465 0.0
0.824012 0.008443 0.0
0.807153 0.008416 0.0
0.790349 0.008388 0.0
0.773600 0.008361 0.0
0.756901 0.008338 0.0
0.740244 0.008320 0.0
0.723616 0.008309 0.0
0.707000 0.008307 0.0
0.690378 0.008315 0.0
0.673727 0.008336 0.0
0.657019 0.008372 0.0
0.640219 0.008428 0.0
0.623285 0.008506 0.0
0.606164 0.008615 0.0
0.588788 0.008761 0.0
0.571071 0.008957 0.0
0.552898 0.009216 0.0
0.534122 0.009560 0.0
0.514548 0.010015 0.0
0.493916 0.010617 0.0
0.471882 0.011417 0.0
0.447984 0.012481 0.0
0.421605 0.013898 0.0
0.391923 0.015784 0.0
0.357856 0.018283 0.0
0.318014 0.021559 0.0
0.270690 0.025764 0.0
0.213966 0.030960 0.0
0.146053 0.036953 0.0
0.065900 0.043200 0.0
-0.022187 0.044887 0.0
-0.083763 0.016689 0.0
-0.050226 -0.050226 0.0
0.500000 0.050210 0.0
1.000000 0.000000 0.0
1.000000 0.000000 0.0
1.000000 0.000000 0.0
1.000000 0.000000 0.0
1.000000 0.000000 0.0
0.500000 0.034824 0.0
0.034851 -0.034851 0.0
0.091653 -0.021952 0.0
0.123494 -0.009889 0.0
0.133835 -0.000452 0.0
0.129108 0.005179 0.0
0.121377 0.002552 0.0
0.125276 -0.006450 0.0
0.140265 -0.008539 0.0
0.151744 -0.002940 0.0
0.151978 0.002706 0.0
0.142405 0.006867 0.0
0.124854 0.010684 0.0
0.099711 0.014459 0.0
0.066508 0.018744 0.0
0.024368 0.023396 0.0
-0.026658 0.027630 0.0
-0.085712 0.031424 0.0
-0.151518 0.034381 0.0
-0.222096 0.036197 0.0
-0.295061 0.036768 0.0
-0.367986 0.036157 0.0
-0.438689 0.034545 0.0
-0.505421 0.032187 0.0
-0.566967 0.029360 0.0
-0.622660 0.026333 0.0
-0.672334 0.023340 0.0
-0.716232 0.020558 0.0
-0.754888 0.018099 0.0
-0.788999 0.016013 0.0
-0.819307 0.014296 0.0
-0.846507 0.012904 0.0
-0.871180 0.011770 0.0
-0.893766 0.010817 0.0
-0.914554 0.009971 0.0
-0.933692 0.009168 0.0
-0.951220 0.008360 0.0
-0.967091 0.007511 0.0
-0.981208 0.006605 0.0
-0.993446 0.005633 0.0
-1.003677 0.004598 0.0
-1.011779 0.003504 0.0
-1.017640 0.002356 0.0
-1.021156 0.001160 0.0
-1.022250 -0.000067 0.0
-1.020836 -0.001347 0.0
-1.016843 -0.002646 0.0
-1.010303 -0.003894 0.0
-1.001338 -0.005070 0.0
-0.990103 -0.006165 0.0
-0.976763 -0.007175 0.0
-0.961488 -0.008100 0.0
-0.944443 -0.008944 0.0
-0.925788 -0.009711 0.0
-0.905671 -0.010406 0.0
-0.884230 -0.011035 0.0
-0.861590 -0.011605 0.0
-0.837862 -0.012122 0.0
-0.813148 -0.012592 0.0
-0.787537 -0.013018 0.0
-0.761115 -0.013404 0.0
-0.733961 -0.013750 0.0
-0.706158 -0.014054 0.0
-0.677793 -0.014312 0.0
-0.648960 -0.014520 0.0
-0.619770 -0.014670 0.0
-0.590347 -0.014753 0.0
-0.560832 -0.014762 0.0
-0.531385 -0.014686 0.0
-0.502179 -0.014520 0.0
-0.473402 -0.014258 0.0
-0.445244 -0.013900 0.0
-0.417896 -0.013449 0.0
-0.391533 -0.012914 0.0
-0.366311 -0.012308 0.0
-0.342353 -0.011650 0.0
-0.319744 -0.010959 0.0
-0.298529 -0.010257 0.0
-0.278709 -0.009563 0.0
-0.260253 -0.008893 0.0
-0.243099 -0.008260 0.0
-0.227167 -0.007671 0.0
-0.212365 -0.007131 0.0
-0.198590 -0.006643 0.0
-0.185737 -0.006210 0.0
-0.173690 -0.005837 0.0
-0.162321 -0.005532 0.0
-0.151488 -0.005301 0.0
-0.141032 -0.005156 0.0
-0.130768 -0.005107 0.0
-0.120492 -0.005168 0.0
-0.109976 -0.005348 0.0
-0.098978 -0.005650 0.0
-0.087258 -0.006071 0.0
-0.074567 -0.006619 0.0
-0.060630 -0.007318 0.0
-0.045143 -0.008168 0.0
-0.027852 -0.009122 0.0
-0.008607 -0.010122 0.0
0.012593 -0.011078 0.0
0.035824 -0.012153 0.0
0.061221 -0.013244 0.0
0.088897 -0.014432 0.0
0.118904 -0.015574 0.0
0.151077 -0.016599 0.0
0.185282 -0.017606 0.0
0.221519 -0.018631 0.0
0.259680 -0.019530 0.0
0.299401 -0.020192 0.0
0.340155 -0.020563 0.0
0.381344 -0.020627 0.0
0.422298 -0.020327 0.0
0.462177 -0.019552 0.0
0.499926 -0.018197 0.0
0.534294 -0.016171 0.0
0.563885 -0.013420 0.0
0.587249 -0.009943 0.0
0.603047 -0.005855 0.0
0.610402 -0.001499 0.0
0.609470 0.002431 0.0
0.601901 0.005139 0.0
0.590096 0.006666 0.0
0.576083 0.007346 0.0
0.561384 0.007353 0.0
0.547201 0.006830 0.0
0.534476 0.005895 0.0
0.523948 0.004633 0.0
0.516205 0.003110 0.0
0.511671 0.001424 0.0
0.510408 -0.000160 0.0
0.511753 -0.001186 0.0
0.514057 -0.001118 0.0
0.514743 0.000432 0.0
0.511153 0.003159 0.0
0.501695 0.006299 0.0
0.486238 0.009158 0.0
0.465758 0.011322 0.0
0.441794 0.012641 0.0
0.415989 0.013164 0.0
0.389807 0.013018 0.0
0.364444 0.012345 0.0
0.340810 0.011289 0.0
0.319617 0.009904 0.0
0.301357 0.008356 0.0
0.286184 0.006818 0.0
0.273962 0.005404 0.0
0.264371 0.004187 0.0
0.256995 0.003188 0.0
0.251469 0.002338 0.0
0.248446 0.000684 0.0
1.001711 0.005458 0.0
1.005179 0.010663 0.0
1.008157 0.013432 0.0
1.010051 0.015068 0.0
1.010916 0.016125 0.0
1.010895 0.016859 0.0
1.010114 0.017395 0.0
1.008670 0.017801 0.0
1.006635 0.018117 0.0
1.004067 0.018370 0.0
1.001009 0.018578 0.0
0.997493 0.018754 0.0
0.993544 0.018912 0.0
0.989180 0.019060 0.0
0.984411 0.019207 0.0
0.979244 0.019358 0.0
0.973679 0.019522 0.0
0.967713 0.019702 0.0
0.961338 0.019904 0.0
0.954543 0.020135 0.0
0.947311 0.020400 0.0
0.939621 0.020708 0.0
0.931444 0.021070 0.0
0.922741 0.021501 0.0
0.913463 0.022019 0.0
0.903545 0.022651 0.0
0.892899 0.023430 0.0
0.881413 0.024402 0.0
0.868937 0.025627 0.0
0.855270 0.027189 0.0
0.840145 0.029200 0.0
0.823202 0.031812 0.0
0.803953 0.035233 0.0
0.781735 0.039742 0.0
0.755648 0.045708 0.0
0.724475 0.053600 0.0
0.686588 0.063972 0.0
0.639871 0.077392 0.0
0.581711 0.094215 0.0
0.509297 0.114025 0.0
0.421132 0.134447 0.0
0.319093 0.143766 0.0
0.198028 0.100451 0.0
0.065478 -0.034975 0.0
0.500000 0.034914 0.0
1.000000 0.000000 0.0
1.000000 0.000000 0.0
1.000000 0.000000 0.0
1.000000 0.000000 0.0
1.000000 0.000000 0.0
0.500000 0.097853 0.0
0.028228 -0.097929 0.0
0.074571 -0.062019 0.0
0.101523 -0.028614 0.0
0.112346 -0.002891 0.0
0.102247 0.022444 0.0
0.069537 0.025728 0.0
0.019555 0.016457 0.0
-0.037748 0.010867 0.0
-0.086232 0.014658 0.0
-0.123072 0.021713 0.0
-0.156348 0.030709 0.0
-0.192444 0.040489 0.0
-0.233323 0.050677 0.0
-0.279811 0.062217 0.0
-0.332556 0.074807 0.0
-0.392125 0.086814 0.0
-0.458243 0.097413 0.0
-0.529510 0.105465 0.0
-0.603969 0.110149 0.0
-0.679350 0.111163 0.0
-0.753342 0.108679 0.0
-0.823850 0.103234 0.0
-0.889203 0.095583 0.0
-0.948267 0.086573 0.0
-1.000478 0.077024 0.0
-1.045801 0.067646 0.0
-1.084627 0.058976 0.0
-1.117643 0.051352 0.0
-1.145689 0.044916 0.0
-1.169629 0.039640 0.0
-1.190249 0.035379 0.0
-1.208195 0.031913 0.0
-1.223937 0.029002 0.0
-1.237777 0.026413 0.0
-1.249862 0.023949 0.0
-1.260215 0.021460 0.0
-1.268775 0.018842 0.0
-1.275425 0.016040 0.0
-1.280025 0.013036 0.0
-1.282434 0.009835 0.0
-1.282515 0.006450 0.0
-1.280133 0.002889 0.0
-1.275174 -0.000815 0.0
-1.267653 -0.004520 0.0
-1.257754 -0.008206 0.0
-1.245722 -0.011811 0.0
-1.231735 -0.015256 0.0
-1.215908 -0.018500 0.0
-1.198356 -0.021522 0.0
-1.179199 -0.024314 0.0
-1.158562 -0.026874 0.0
-1.136569 -0.029208 0.0
-1.113345 -0.031327 0.0
-1.089006 -0.033246 0.0
-1.063662 -0.034980 0.0
-1.037413 -0.036549 0.0
-1.010348 -0.037970 0.0
-0.982547 -0.039259 0.0
-0.954083 -0.040426 0.0
-0.925021 -0.041480 0.0
-0.895426 -0.042422 0.0
-0.865363 -0.043247 0.0
-0.834904 -0.043943 0.0
-0.804130 -0.044495 0.0
-0.773133 -0.044881 0.0
-0.742023 -0.045076 0.0
-0.710923 -0.045054 0.0
-0.679972 -0.044791 0.0
-0.649324 -0.044268 0.0
-0.619137 -0.043473 0.0
-0.589577 -0.042403 0.0
-0.560801 -0.041070 0.0
-0.532954 -0.039502 0.0
-0.506161 -0.037736 0.0
-0.480517 -0.035824 0.0
-0.456086 -0.033825 0.0
-0.432896 -0.031796 0.0
-0.410945 -0.029794 0.0
-0.390202 -0.027861 0.0
-0.370617 -0.026031 0.0
-0.352128 -0.024322 0.0
-0.334665 -0.022746 0.0
-0.318155 -0.021312 0.0
-0.302519 -0.020029 0.0
-0.287671 -0.018914 0.0
-0.273509 -0.017986 0.0
-0.259917 -0.017271 0.0
-0.246763 -0.016796 0.0
-0.233904 -0.016590 0.0
-0.221182 -0.016684 0.0
-0.208421 -0.017109 0.0
-0.195421 -0.017887 0.0
-0.181939 -0.019037 0.0
-0.167699 -0.020584 0.0
-0.152422 -0.022567 0.0
-0.135851 -0.024977 0.0
-0.117727 -0.027729 0.0
-0.097772 -0.030715 0.0
-0.075651 -0.033805 0.0
-0.051127 -0.037182 0.0
-0.024083 -0.040656 0.0
0.005267 -0.044046 0.0
0.036554 -0.047254 0.0
0.069747 -0.050286 0.0
0.104802 -0.053179 0.0
0.141685 -0.056178 0.0
0.180429 -0.058887 0.0
0.220813 -0.060940 0.0
0.262424 -0.062180 0.0
0.304832 -0.062606 0.0
0.347639 -0.062108 0.0
0.390345 -0.060356 0.0
0.432283 -0.057080 0.0
0.472683 -0.052056 0.0
0.510724 -0.045167 0.0
0.545573 -0.036409 0.0
0.576402 -0.026017 0.0
0.602348 -0.014638 0.0
0.622337 -0.003488 0.0
0.635256 0.005709 0.0
0.641451 0.011706 0.0
0.642504 0.015266 0.0
0.639625 0.017012 0.0
0.633401 0.017579 0.0
0.623681 0.017592 0.0
0.609541 0.017603 0.0
0.589438 0.017986 0.0
0.561708 0.018812 0.0
0.525385 0.020039 0.0
0.480873 0.021781 0.0
0.430145 0.024341 0.0
0.376260 0.028171 0.0
0.321987 0.033283 0.0
0.269252 0.038367 0.0
0.219318 0.042481 0.0
0.172693 0.045105 0.0
0.129517 0.045998 0.0
0.089897 0.045233 0.0
0.054014 0.043015 0.0
0.022099 0.039625 0.0
-0.005623 0.035365 0.0
-0.029149 0.030547 0.0
-0.048691 0.025514 0.0
-0.064454 0.020596 0.0
-0.076664 0.016058 0.0
-0.085624 0.012085 0.0
-0.091712 0.008754 0.0
-0.095375 0.005962 0.0
-0.097778 0.002487 0.0
1.000666 0.003081 0.0
1.002510 0.007728 0.0
1.004930 0.010969 0.0
1.007307 0.013262 0.0
1.009422 0.014951 0.0
1.011225 0.016251 0.0
1.012721 0.017289 0.0
1.013927 0.018145 0.0
1.014865 0.018870 0.0
1.015550 0.019500 0.0
1.015996 0.020061 0.0
1.016208 0.020575 0.0
1.016191 0.021058 0.0
1.015942 0.021527 0.0
1.015458 0.021993 0.0
1.014731 0.022467 0.0
1.013749 0.022960 0.0
1.012501 0.023479 0.0
1.010969 0.024034 0.0
1.009136 0.024633 0.0
1.006980 0.025288 0.0
1.004477 0.026012 0.0
1.001599 0.026821 0.0
0.998312 0.027739 0.0
0.994575 0.028795 0.0
0.990340 0.030028 0.0
0.985547 0.031492 0.0
0.980118 0.033255 0.0
0.973954 0.035413 0.0
0.966929 0.038095 0.0
0.958871 0.041476 0.0
0.949552 0.045798 0.0
0.938656 0.051393 0.0
0.925738 0.058718 0.0
0.910162 0.068395 0.0
0.891001 0.081248 0.0
0.866872 0.098338 0.0
0.835698 0.120918 0.0
0.794328 0.150219 0.0
0.738008 0.186755 0.0
0.659615 0.228276 0.0
0.547737 0.263855 0.0
0.383645 0.265520 0.0
0.142824 0.173327 0.0
0.500000 -0.173448 0.0
1.000000 0.000000 0.0
1.000000 0.000000 0.0
1.000000 0.000000 0.0
1.000000 0.000000 0.0
1.000000 0.000000 0.0
0.500000 0.138225 0.0
0.012181 -0.138338 0.0
0.027828 -0.083601 0.0
0.012046 -0.018203 0.0
-0.038309 0.026229 0.0
-0.096396 0.061511 0.0
-0.152388 0.075362 0.0
-0.210485 0.074902 0.0
-0.265670 0.064911 0.0
-0.311078 0.054506 0.0
-0.345066 0.052694 0.0
-0.375231 0.063169 0.0
-0.408016 0.076908 0.0
-0.444284 0.091405 0.0
-0.484594 0.108287 0.0
-0.530404 0.127293 0.0
-0.582654 0.146147 0.0
-0.641021 0.162564 0.0
-0.704052 0.174613 0.0
-0.769615 0.181022 0.0
-0.835284 0.181339 0.0
-0.898674 0.175885 0.0
-0.957725 0.165587 0.0
-1.010892 0.151750 0.0
-1.057247 0.135825 0.0
-1.096480 0.119217 0.0
-1.128834 0.103130 0.0
-1.154976 0.088460 0.0
-1.175841 0.075749 0.0
-1.192465 0.065189 0.0
-1.205839 0.056682 0.0
-1.216812 0.049930 0.0
-1.226031 0.044526 0.0
-1.233932 0.040033 0.0
-1.240756 0.036045 0.0
-1.246579 0.032225 0.0
-1.251358 0.028316 0.0
-1.254966 0.024153 0.0
-1.257231 0.019645 0.0
-1.257968 0.014770 0.0
-1.257004 0.009546 0.0
-1.254189 0.004004 0.0
-1.249391 -0.001845 0.0
-1.242659 -0.007772 0.0
-1.234113 -0.013631 0.0
-1.223781 -0.019326 0.0
-1.211712 -0.024792 0.0
-1.197984 -0.029991 0.0
-1.182691 -0.034884 0.0
-1.165937 -0.039444 0.0
-1.147833 -0.043654 0.0
-1.128492 -0.047512 0.0
-1.108030 -0.051024 0.0
-1.086560 -0.054206 0.0
-1.064189 -0.057078 0.0
-1.041014 -0.059668 0.0
-1.017121 -0.062004 0.0
-0.992588 -0.064114 0.0
-0.967479 -0.066025 0.0
-0.941847 -0.067756 0.0
-0.915742 -0.069318 0.0
-0.889208 -0.070714 0.0
-0.862290 -0.071936 0.0
-0.835038 -0.072965 0.0
-0.807514 -0.073773 0.0
-0.779788 -0.074325 0.0
-0.751949 -0.074581 0.0
-0.724102 -0.074496 0.0
-0.696369 -0.074033 0.0
-0.668884 -0.073159 0.0
-0.641796 -0.071856 0.0
-0.615255 -0.070120 0.0
-0.589412 -0.067972 0.0
-0.564404 -0.065454 0.0
-0.540351 -0.062629 0.0
-0.517347 -0.059579 0.0
-0.495453 -0.056395 0.0
-0.474697 -0.053171 0.0
-0.455078 -0.049989 0.0
-0.436569 -0.046918 0.0
-0.419126 -0.044002 0.0
-0.402699 -0.041267 0.0
-0.387237 -0.038726 0.0
-0.372689 -0.036390 0.0
-0.359002 -0.034274 0.0
-0.346112 -0.032408 0.0
-0.333940 -0.030828 0.0
-0.322385 -0.029576 0.0
-0.311331 -0.028698 0.0
-0.300643 -0.028234 0.0
-0.290174 -0.028232 0.0
-0.279756 -0.028740 0.0
-0.269196 -0.029816 0.0
-0.258270 -0.031515 0.0
-0.246734 -0.033881 0.0
-0.234350 -0.036932 0.0
-0.220892 -0.040641 0.0
-0.206154 -0.044927 0.0
-0.189939 -0.049687 0.0
-0.172068 -0.054824 0.0
-0.152446 -0.060309 0.0
-0.131042 -0.065976 0.0
-0.107672 -0.071447 0.0
-0.082086 -0.076726 0.0
-0.054242 -0.081851 0.0
-0.024222 -0.086689 0.0
0.007461 -0.091235 0.0
0.040226 -0.095339 0.0
0.074021 -0.098665 0.0
0.108741 -0.100787 0.0
0.144019 -0.101686 0.0
0.179547 -0.101363 0.0
0.214977 -0.099237 0.0
0.249807 -0.094967 0.0
0.283468 -0.088231 0.0
0.315388 -0.078953 0.0
0.345027 -0.067111 0.0
0.371829 -0.052945 0.0
0.395197 -0.037025 0.0
0.414359 -0.020252 0.0
0.427833 -0.003919 0.0
0.433021 0.009951 0.0
0.428844 0.020146 0.0
0.416215 0.027639 0.0
0.395745 0.033643 0.0
0.367808 0.039186 0.0
0.332890 0.045066 0.0
0.291695 0.051821 0.0
0.245289 0.059112 0.0
0.195153 0.066199 0.0
0.142754 0.072532 0.0
0.089387 0.077685 0.0
0.036278 0.081820 0.0
-0.014996 0.085180 0.0
-0.063320 0.087528 0.0
-0.108546 0.088481 0.0
-0.150564 0.087747 0.0
-0.189203 0.085170 0.0
-0.224327 0.080805 0.0
-0.255832 0.074832 0.0
-0.283661 0.067552 0.0
-0.307824 0.059323 0.0
-0.328352 0.050644 0.0
-0.345299 0.041906 0.0
-0.358804 0.033472 0.0
-0.369088 0.025676 0.0
-0.376447 0.018786 0.0
-0.381294 0.012987 0.0
-0.384254 0.008351 0.0
-0.386507 0.004754 0.0
1.000303 0.002113 0.0
1.001296 0.005859 0.0
1.002836 0.008877 0.0
1.004560 0.011254 0.0
1.006264 0.013140 0.0
1.007857 0.014666 0.0
1.009304 0.015930 0.0
1.010601 0.017001 0.0
1.011751 0.017926 0.0
1.012765 0.018745 0.0
1.013651 0.019486 0.0
1.014414 0.020174 0.0
1.015058 0.020832 0.0
1.015584 0.021476 0.0
1.015989 0.022123 0.0
1.016268 0.022786 0.0
1.016414 0.023477 0.0
1.016416 0.024208 0.0
1.016263 0.024989 0.0
1.015942 0.025832 0.0
1.015437 0.026750 0.0
1.014733 0.027758 0.0
1.013810 0.028876 0.0
1.012649 0.030132 0.0
1.011228 0.031559 0.0
1.009524 0.033204 0.0
1.007508 0.035125 0.0
1.005153 0.037406 0.0
1.002423 0.040155 0.0
0.999282 0.043520 0.0
0.995684 0.047707 0.0
0.991570 0.053000 0.0
0.986862 0.059796 0.0
0.981439 0.068657 0.0
0.975096 0.080374 0.0
0.967458 0.096069 0.0
0.957796 0.117308 0.0
0.944671 0.146247 0.0
0.925193 0.185738 0.0
0.893536 0.239213 0.0
0.837952 0.309794 0.0
0.735125 0.397042 0.0
0.542868 0.488683 0.0
0.208850 0.525001 0.0
0.500000 -0.525208 0.0
1.000000 0.000000 0.0
1.000000 0.000000 0.0
1.000000 0.000000 0.0
1.000000 0.000000 0.0
1.000000 0.000000 0.0
0.500000 0.134178 0.0
-0.016189 -0.134330 0.0
-0.063526 -0.055918 0.0
-0.126294 0.032665 0.0
-0.188098 0.087519 0.0
-0.249869 0.120080 0.0
-0.313181 0.136097 0.0
-0.375449 0.134532 0.0
-0.431177 0.116194 0.0
-0.468788 0.086241 0.0
-0.485295 0.071454 0.0
-0.499275 0.088554 0.0
-0.521911 0.106943 0.0
-0.547387 0.123114 0.0
-0.574715 0.144216 0.0
-0.607693 0.170152 0.0
-0.648545 0.196390 0.0
-0.696872 0.219015 0.0
-0.750809 0.235131 0.0
-0.807716 0.242975 0.0
-0.864679 0.242018 0.0
-0.918938 0.232855 0.0
-0.968219 0.216949 0.0
-1.010939 0.196277 0.0
-1.046283 0.172997 0.0
-1.074171 0.149166 0.0
-1.095157 0.126521 0.0
-1.110264 0.106318 0.0
-1.120767 0.089259 0.0
-1.127979 0.075515 0.0
-1.133077 0.064828 0.0
-1.136985 0.056664 0.0
-1.140332 0.050359 0.0
-1.143471 0.045240 0.0
-1.146514 0.040705 0.0
-1.149395 0.036269 0.0
-1.151924 0.031579 0.0
-1.153840 0.026413 0.0
-1.154857 0.020667 0.0
-1.154702 0.014331 0.0
-1.153141 0.007460 0.0
-1.149997 0.000131 0.0
-1.145214 -0.007551 0.0
-1.138793 -0.015218 0.0
-1.130733 -0.022792 0.0
-1.121072 -0.030157 0.0
-1.109874 -0.037227 0.0
-1.097220 -0.043939 0.0
-1.083208 -0.050242 0.0
-1.067944 -0.056103 0.0
-1.051542 -0.061501 0.0
-1.034119 -0.066429 0.0
-1.015795 -0.070894 0.0
-0.996681 -0.074919 0.0
-0.976886 -0.078532 0.0
-0.956503 -0.081772 0.0
-0.935613 -0.084681 0.0
-0.914283 -0.087301 0.0
-0.892562 -0.089669 0.0
-0.870490 -0.091816 0.0
-0.848094 -0.093759 0.0
-0.825397 -0.095504 0.0
-0.802419 -0.097042 0.0
-0.779183 -0.098346 0.0
-0.755721 -0.099378 0.0
-0.732080 -0.100088 0.0
-0.708318 -0.100418 0.0
-0.684518 -0.100306 0.0
-0.660779 -0.099696 0.0
-0.637219 -0.098540 0.0
-0.613974 -0.096808 0.0
-0.591191 -0.094492 0.0
-0.569019 -0.091616 0.0
-0.547603 -0.088234 0.0
-0.527072 -0.084433 0.0
-0.507527 -0.080324 0.0
-0.489037 -0.076034 0.0
-0.471634 -0.071691 0.0
-0.455315 -0.067408 0.0
-0.440050 -0.063274 0.0
-0.425794 -0.059345 0.0
-0.412499 -0.055645 0.0
-0.400126 -0.052183 0.0
-0.388642 -0.048965 0.0
-0.378012 -0.046016 0.0
-0.368188 -0.043379 0.0
-0.359100 -0.041117 0.0
-0.350647 -0.039294 0.0
-0.342708 -0.037973 0.0
-0.335146 -0.037208 0.0
-0.327816 -0.037056 0.0
-0.320562 -0.037587 0.0
-0.313205 -0.038887 0.0
-0.305538 -0.041038 0.0
-0.297334 -0.044096 0.0
-0.288372 -0.048065 0.0
-0.278449 -0.052889 0.0
-0.267400 -0.058467 0.0
-0.255091 -0.064672 0.0
-0.241427 -0.071374 0.0
-0.226366 -0.078443 0.0
-0.209903 -0.085710 0.0
-0.192019 -0.092967 0.0
-0.172713 -0.100097 0.0
-0.152054 -0.106983 0.0
-0.130166 -0.113465 0.0
-0.107094 -0.119214 0.0
-0.082935 -0.124284 0.0
-0.057952 -0.128498 0.0
-0.032272 -0.131355 0.0
-0.006132 -0.132535 0.0
0.019726 -0.131900 0.0
0.044745 -0.129149 0.0
0.068713 -0.123853 0.0
0.091196 -0.115489 0.0
0.111712 -0.104130 0.0
0.129762 -0.089623 0.0
0.144656 -0.072128 0.0
0.155542 -0.052096 0.0
0.161476 -0.030276 0.0
0.161740 -0.007633 0.0
0.156525 0.013691 0.0
0.145576 0.031533 0.0
0.127857 0.046600 0.0
0.103167 0.059842 0.0
0.072076 0.072016 0.0
0.035633 0.083597 0.0
-0.004555 0.094674 0.0
-0.046809 0.104918 0.0
-0.090075 0.113795 0.0
-0.133623 0.120883 0.0
-0.176808 0.125885 0.0
-0.219013 0.128936 0.0
-0.259693 0.130019 0.0
-0.298258 0.129579 0.0
-0.334069 0.127468 0.0
-0.366742 0.123452 0.0
-0.396112 0.117475 0.0
-0.422135 0.109647 0.0
-0.444854 0.100214 0.0
-0.464380 0.089525 0.0
-0.480874 0.078007 0.0
-0.494525 0.066139 0.0
-0.505540 0.054372 0.0
-0.514155 0.043126 0.0
-0.520635 0.032785 0.0
-0.525281 0.023683 0.0
-0.528464 0.016121 0.0
-0.530684 0.010398 0.0
-0.532654 0.006930 0.0
1.000168 0.001643 0.0
1.000768 0.004736 0.0
1.001789 0.007440 0.0
1.003027 0.009729 0.0
1.004336 0.011651 0.0
1.005624 0.013273 0.0
1.006845 0.014655 0.0
1.007977 0.015848 0.0
1.009013 0.016892 0.0
1.009956 0.017823 0.0
1.010807 0.018670 0.0
1.011572 0.019462 0.0
1.012252 0.020220 0.0
1.012849 0.020965 0.0
1.013362 0.021716 0.0
1.013787 0.022488 0.0
1.014122 0.023295 0.0
1.014361 0.024150 0.0
1.014496 0.025065 0.0
1.014521 0.026053 0.0
1.014427 0.027127 0.0
1.014208 0.028304 0.0
1.013854 0.029606 0.0
1.013361 0.031057 0.0
1.012723 0.032693 0.0
1.011939 0.034559 0.0
1.011012 0.036713 0.0
1.009952 0.039234 0.0
1.008782 0.042226 0.0
1.007540 0.045832 0.0
1.006290 0.050244 0.0
1.005132 0.055735 0.0
1.004213 0.062688 0.0
1.003744 0.071657 0.0
1.004003 0.083458 0.0
1.005320 0.099307 0.0
1.007991 0.121060 0.0
1.012016 0.151595 0.0
1.016416 0.195469 0.0
1.017519 0.260036 0.0
1.004746 0.357328 0.0
0.950246 0.506835 0.0
0.783979 0.737415 0.0
0.330207 1.064059 0.0
0.500000 -1.064421 0.0
1.000000 0.000000 0.0
1.000000 0.000000 0.0
1.000000 0.000000 0.0
1.000000 0.000000 0.0
1.000000 0.000000 0.0
0.500000 0.072981 0.0
-0.044974 -0.073168 0.0
-0.133920 0.019202 0.0
-0.213010 0.099403 0.0
-0.282671 0.152246 0.0
-0.351395 0.185848 0.0
-0.419736 0.201981 0.0
-0.488253 0.199433 0.0
-0.551607 0.170374 0.0
-0.579659 0.097723 0.0
-0.557028 0.053849 0.0
-0.541236 0.104347 0.0
-0.557175 0.129725 0.0
-0.571165 0.139798 0.0
-0.580400 0.164096 0.0
-0.597337 0.200186 0.0
-0.626676 0.236546 0.0
-0.666866 0.267375 0.0
-0.714973 0.288814 0.0
-0.767343 0.298570 0.0
-0.820078 0.296122 0.0
-0.869603 0.282536 0.0
-0.913108 0.260053 0.0
-0.948777 0.231561 0.0
-0.975825 0.200103 0.0
-0.994413 0.168535 0.0
-1.005508 0.139233 0.0
-1.010652 0.113856 0.0
-1.011658 0.093229 0.0
-1.010291 0.077390 0.0
-1.008018 0.065779 0.0
-1.005887 0.057489 0.0
-1.004501 0.051496 0.0
-1.004085 0.046826 0.0
-1.004577 0.042654 0.0
-1.005718 0.038343 0.0
-1.007131 0.033448 0.0
-1.008385 0.027713 0.0
-1.009048 0.021047 0.0
-1.008744 0.013492 0.0
-1.007185 0.005178 0.0
-1.004162 -0.003754 0.0
-0.999612 -0.013000 0.0
-0.993534 -0.022268 0.0
-0.985930 -0.031407 0.0
-0.976860 -0.040274 0.0
-0.966402 -0.048766 0.0
-0.954651 -0.056804 0.0
-0.941713 -0.064327 0.0
-0.927703 -0.071293 0.0
-0.912744 -0.077672 0.0
-0.896966 -0.083457 0.0
-0.880499 -0.088658 0.0
-0.863468 -0.093300 0.0
-0.845987 -0.097426 0.0
-0.828159 -0.101089 0.0
-0.810066 -0.104347 0.0
-0.791772 -0.107259 0.0
-0.773323 -0.109880 0.0
-0.754746 -0.112253 0.0
-0.736055 -0.114408 0.0
-0.717253 -0.116354 0.0
-0.698339 -0.118084 0.0
-0.679313 -0.119566 0.0
-0.660179 -0.120753 0.0
-0.640953 -0.121581 0.0
-0.621665 -0.121975 0.0
-0.602361 -0.121854 0.0
-0.583109 -0.121141 0.0
-0.563996 -0.119768 0.0
-0.545133 -0.117688 0.0
-0.526648 -0.114881 0.0
-0.508684 -0.111363 0.0
-0.491390 -0.107197 0.0
-0.474904 -0.102487 0.0
-0.459342 -0.097377 0.0
-0.444783 -0.092030 0.0
-0.431263 -0.086617 0.0
-0.418776 -0.081287 0.0
-0.407284 -0.076152 0.0
-0.396731 -0.071276 0.0
-0.387068 -0.066672 0.0
-0.378263 -0.062334 0.0
-0.370304 -0.058258 0.0
-0.363180 -0.054478 0.0
-0.356859 -0.051062 0.0
-0.351272 -0.048109 0.0
-0.346311 -0.045716 0.0
-0.341839 -0.043963 0.0
-0.337712 -0.042907 0.0
-0.333798 -0.042602 0.0
-0.329967 -0.043127 0.0
-0.326071 -0.044600 0.0
-0.321925 -0.047138 0.0
-0.317316 -0.050809 0.0
-0.312033 -0.055598 0.0
-0.305903 -0.061408 0.0
-0.298804 -0.068097 0.0
-0.290655 -0.075500 0.0
-0.281420 -0.083445 0.0
-0.271100 -0.091753 0.0
-0.259727 -0.100236 0.0
-0.247346 -0.108705 0.0
-0.234023 -0.116988 0.0
-0.219860 -0.124915 0.0
-0.204991 -0.132290 0.0
-0.189559 -0.138892 0.0
-0.173754 -0.144569 0.0
-0.157853 -0.149096 0.0
-0.142171 -0.152118 0.0
-0.126952 -0.153132 0.0
-0.112363 -0.151751 0.0
-0.098778 -0.147902 0.0
-0.086715 -0.141131 0.0
-0.076497 -0.130911 0.0
-0.068461 -0.117259 0.0
-0.063008 -0.099999 0.0
-0.060393 -0.079261 0.0
-0.060767 -0.055477 0.0
-0.064119 -0.029477 0.0
-0.070297 -0.002518 0.0
-0.079428 0.022921 0.0
-0.092357 0.046182 0.0
-0.109848 0.067160 0.0
-0.131905 0.086027 0.0
-0.158019 0.103035 0.0
-0.187323 0.118325 0.0
-0.218875 0.131687 0.0
-0.251787 0.143070 0.0
-0.285176 0.152298 0.0
-0.318305 0.159058 0.0
-0.350628 0.163216 0.0
-0.381666 0.164849 0.0
-0.410970 0.164089 0.0
-0.438073 0.161177 0.0
-0.462552 0.156161 0.0
-0.484171 0.149052 0.0
-0.502880 0.139952 0.0
-0.518764 0.129077 0.0
-0.532009 0.116749 0.0
-0.542868 0.103374 0.0
-0.551625 0.089410 0.0
-0.558574 0.075336 0.0
-0.563997 0.061612 0.0
-0.568160 0.048664 0.0
-0.571311 0.036878 0.0
-0.573689 0.026613 0.0
-0.575541 0.018225 0.0
-0.577147 0.012119 0.0
-0.578798 0.008830 0.0
1.000106 0.001369 0.0
1.000503 0.004012 0.0
1.001214 0.006433 0.0
1.002126 0.008586 0.0
1.003137 0.010474 0.0
1.004176 0.012124 0.0
1.005195 0.013566 0.0
1.006167 0.014833 0.0
1.007079 0.015957 0.0
1.007926 0.016968 0.0
1.008706 0.017893 0.0
1.009420 0.018761 0.0
1.010067 0.019593 0.0
1.010648 0.020414 0.0
1.011161 0.021241 0.0
1.011603 0.022094 0.0
1.011972 0.022985 0.0
1.012263 0.023930 0.0
1.012473 0.024940 0.0
1.012596 0.026029 0.0
1.012630 0.027210 0.0
1.012572 0.028499 0.0
1.012421 0.029915 0.0
1.012181 0.031482 0.0
1.011856 0.033230 0.0
1.011462 0.035200 0.0
1.011021 0.037440 0.0
1.010570 0.040017 0.0
1.010169 0.043014 0.0
1.009910 0.046544 0.0
1.009933 0.050757 0.0
1.010453 0.055860 0.0
1.011790 0.062144 0.0
1.014423 0.070036 0.0
1.019062 0.080180 0.0
1.026742 0.093588 0.0
1.038941 0.111910 0.0
1.057698 0.137962 0.0
1.085643 0.176757 0.0
1.125626 0.237662 0.0
1.178971 0.339130 0.0
1.238306 0.520198 0.0
1.270449 0.858176 0.0
0.636626 1.776801 0.0
-1.829399 -0.697366 0.0
-3.627864 0.000000 0.0
-3.586791 0.000000 0.0
-3.566980 0.000000 0.0
-3.539992 0.000000 0.0
-3.486977 0.000000 0.0
-1.725640 0.013998 0.0
-0.075667 0.038211 0.0
-0.204962 0.116802 0.0
-0.300995 0.176927 0.0
-0.377443 0.220831 0.0
-0.440394 0.248938 0.0
-0.496232 0.263070 0.0
-0.554740 0.265370 0.0
-0.629203 0.242254 0.0
-0.638036 0.062729 0.0
-0.538865 -0.032958 0.0
-0.497059 0.133555 0.0
-0.538146 0.157544 0.0
-0.543533 0.131357 0.0
-0.522229 0.160468 0.0
-0.518888 0.217410 0.0
-0.539173 0.268946 0.0
-0.575419 0.311410 0.0
-0.622980 0.340447 0.0
-0.676668 0.352995 0.0
-0.730909 0.348673 0.0
-0.780742 0.329344 0.0
-0.822470 0.298479 0.0
-0.853936 0.260270 0.0
-0.874407 0.218913 0.0
-0.884387 0.178295 0.0
-0.885468 0.141649 0.0
-0.880037 0.111153 0.0
-0.870795 0.087697 0.0
-0.860235 0.070996 0.0
-0.850273 0.059940 0.0
-0.842108 0.053031 0.0
-0.836269 0.048729 0.0
-0.832775 0.045683 0.0
-0.831307 0.042821 0.0
-0.831346 0.039357 0.0
-0.832277 0.034777 0.0
-0.833458 0.028817 0.0
-0.834285 0.021433 0.0
-0.834243 0.012760 0.0
-0.832950 0.003058 0.0
-0.830209 -0.007397 0.0
-0.825957 -0.018159 0.0
-0.820184 -0.028958 0.0
-0.812942 -0.039562 0.0
-0.804322 -0.049810 0.0
-0.794421 -0.059588 0.0
-0.783343 -0.068811 0.0
-0.771196 -0.077406 0.0
-0.758102 -0.085318 0.0
-0.744196 -0.092512 0.0
-0.729618 -0.098973 0.0
-0.714516 -0.104711 0.0
-0.699030 -0.109763 0.0
-0.683291 -0.114183 0.0
-0.667410 -0.118041 0.0
-0.651480 -0.121418 0.0
-0.635570 -0.124392 0.0
-0.619727 -0.127039 0.0
-0.603977 -0.129421 0.0
-0.588331 -0.131579 0.0
-0.572785 -0.133531 0.0
-0.557334 -0.135271 0.0
-0.541973 -0.136766 0.0
-0.526701 -0.137958 0.0
-0.511530 -0.138773 0.0
-0.496479 -0.139122 0.0
-0.481582 -0.138908 0.0
-0.466881 -0.138039 0.0
-0.452434 -0.136430 0.0
-0.438308 -0.134016 0.0
-0.424589 -0.130757 0.0
-0.411385 -0.126656 0.0
-0.398817 -0.121767 0.0
-0.387014 -0.116206 0.0
-0.376089 -0.110145 0.0
-0.366120 -0.103790 0.0
-0.357137 -0.097360 0.0
-0.349119 -0.091050 0.0
-0.342001 -0.085000 0.0
-0.335702 -0.079280 0.0
-0.330155 -0.073879 0.0
-0.325335 -0.068752 0.0
-0.321260 -0.063875 0.0
-0.317954 -0.059291 0.0
-0.315409 -0.055114 0.0
-0.313560 -0.051493 0.0
-0.312278 -0.048574 0.0
-0.311401 -0.046453 0.0
-0.310781 -0.045164 0.0
-0.310317 -0.044724 0.0
-0.309938 -0.045214 0.0
-0.309552 -0.046795 0.0
-0.308999 -0.049642 0.0
-0.308064 -0.053850 0.0
-0.306532 -0.059371 0.0
-0.304250 -0.066046 0.0
-0.301133 -0.073675 0.0
-0.297149 -0.082054 0.0
-0.292301 -0.090973 0.0
-0.286630 -0.100214 0.0
-0.280210 -0.109568 0.0
-0.273130 -0.118834 0.0
-0.265497 -0.127816 0.0
-0.257445 -0.136303 0.0
-0.249138 -0.144078 0.0
-0.240756 -0.150917 0.0
-0.232505 -0.156600 0.0
-0.224616 -0.160855 0.0
-0.217329 -0.163327 0.0
-0.210872 -0.163599 0.0
-0.205468 -0.161276 0.0
-0.201388 -0.156042 0.0
-0.198914 -0.147528 0.0
-0.198236 -0.135410 0.0
-0.199470 -0.119562 0.0
-0.202645 -0.099974 0.0
-0.207667 -0.076878 0.0
-0.214340 -0.050814 0.0
-0.222424 -0.022703 0.0
-0.231677 0.006141 0.0
-0.242420 0.034135 0.0
-0.255348 0.060826 0.0
-0.270831 0.085491 0.0
-0.288906 0.107828 0.0
-0.309278 0.127721 0.0
-0.331416 0.145080 0.0
-0.354690 0.159759 0.0
-0.378447 0.171668 0.0
-0.402045 0.180686 0.0
-0.424937 0.186690 0.0
-0.446691 0.189660 0.0
-0.466951 0.189703 0.0
-0.485411 0.186998 0.0
-0.501808 0.181768 0.0
-0.515961 0.174202 0.0
-0.527821 0.164490 0.0
-0.537475 0.152876 0.0
-0.545117 0.139679 0.0
-0.551013 0.125290 0.0
-0.555467 0.110146 0.0