# vtk DataFile Version 3.0
Vector Field
ASCII
DATASET RECTILINEAR_GRID
DIMENSIONS 200 50 1
X_COORDINATES 200 double
0.050000 0.150000 0.250000 0.350000 0.450000 0.550000 0.650000 0.750000 0.850000 0.950000 1.050000 1.150000 1.250000 1.350000 1.450000 1.550000 1.650000 1.750000 1.850000 1.950000 2.050000 2.150000 2.250000 2.350000 2.450000 2.550000 2.650000 2.750000 2.850000 2.950000 3.050000 3.150000 3.250000 3.350000 3.450000 3.550000 3.650000 3.750000 3.850000 3.950000 4.050000 4.150000 4.250000 4.350000 4.450000 4.550000 4.650000 4.750000 4.850000 4.950000 5.050000 5.150000 5.250000 5.350000 5.450000 5.550000 5.650000 5.750000 5.850000 5.950000 6.050000 6.150000 6.250000 6.350000 6.450000 6.550000 6.650000 6.750000 6.850000 6.950000 7.050000 7.150000 7.250000 7.350000 7.450000 7.550000 7.650000 7.750000 7.850000 7.950000 8.050000 8.150000 8.250000 8.350000 8.450000 8.550000 8.650000 8.750000 8.850000 8.950000 9.050000 9.150000 9.250000 9.350000 9.450000 9.550000 9.650000 9.750000 9.850000 9.950000 10.050000 10.150000 10.250000 10.350000 10.450000 10.550000 10.650000 10.750000 10.850000 10.950000 11.050000 11.150000 11.250000 11.350000 11.450000 11.550000 11.650000 11.750000 11.850000 11.950000 12.050000 12.150000 12.250000 12.350000 12.450000 12.550000 12.650000 12.750000 12.850000 12.950000 13.050000 13.150000 13.250000 13.350000 13.450000 13.550000 13.650000 13.750000 13.850000 13.950000 14.050000 14.150000 14.250000 14.350000 14.450000 14.550000 14.650000 14.750000 14.850000 14.950000 15.050000 15.150000 15.250000 15.350000 15.450000 15.550000 15.650000 15.750000 15.850000 15.950000 16.050000 16.150000 16.250000 16.350000 16.450000 16.550000 16.650000 16.750000 16.850000 16.950000 17.050000 17.150000 17.250000 17.350000 17.450000 17.550000 17.650000 17.750000 17.850000 17.950000 18.050000 18.150000 18.250000 18.350000 18.450000 18.550000 18.650000 18.750000 18.850000 18.950000 19.050000 19.150000 19.250000 19.350000 19.450000 19.550000 19.650000 19.750000 19.850000 19.950000 
Y_COORDINATES 50 double
0.050000 0.150000 0.250000 0.350000 0.450000 0.550000 0.650000 0.750000 0.850000 0.950000 1.050000 1.150000 1.250000 1.350000 1.450000 1.550000 1.650000 1.750000 1.850000 1.950000 2.050000 2.150000 2.250000 2.350000 2.450000 2.550000 2.650000 2.750000 2.850000 2.950000 3.050000 3.150000 3.250000 3.350000 3.450000 3.550000 3.650000 3.750000 3.850000 3.950000 4.050000 4.150000 4.250000 4.350000 4.450000 4.550000 4.650000 4.750000 4.850000 4.950000 
Z_COORDINATES 1 double
0.0
POINT_DATA 10000
VECTORS Vektorfeld double
0.996415 0.003585 0.0
0.986621 0.006209 0.0
0.973087 0.007324 0.0
0.957901 0.007862 0.0
0.941896 0.008143 0.0
0.925456 0.008296 0.0
0.908782 0.008378 0.0
0.891987 0.008417 0.0
0.875141 0.008430 0.0
0.858285 0.008426 0.0
0.841446 0.008413 0.0
0.824639 0.008394 0.0
0.807872 0.008373 0.0
0.791147 0.008351 0.0
0.774465 0.008331 0.0
0.757821 0.008313 0.0
0.741209 0.008299 0.0
0.724620 0.008289 0.0
0.708044 0.008286 0.0
0.691466 0.008292 0.0
0.674864 0.008309 0.0
0.658215 0.008341 0.0
0.641483 0.008391 0.0
0.624627 0.008465 0.0
0.607590 0.008571 0.0
0.590303 0.008716 0.0
0.572673 0.008913 0.0
0.554586 0.009175 0.0
0.535889 0.009522 0.0
0.516385 0.009981 0.0
0.495816 0.010588 0.0
0.473835 0.011392 0.0
0.449983 0.012460 0.0
0.423641 0.013882 0.0
0.393986 0.015773 0.0
0.359934 0.018280 0.0
0.320087 0.021567 0.0
0.272730 0.025790 0.0
0.215929 0.031011 0.0
0.147880 0.037038 0.0
0.067511 0.043331 0.0
-0.020930 0.045109 0.0
-0.082936 0.016897 0.0
-0.049916 -0.049916 0.0
0.500000 0.049914 0.0
1.000000 0.000000 0.0
1.000000 0.000000 0.0
1.000000 0.000000 0.0
1.000000 0.000000 0.0
1.000000 0.000000 0.0
0.500000 0.036168 0.0
0.036177 -0.036177 0.0
0.094467 -0.022113 0.0
0.124091 -0.007510 0.0
0.130494 0.001106 0.0
0.122592 0.006797 0.0
0.107344 0.008451 0.0
0.093699 0.005194 0.0
0.089448 -0.000943 0.0
0.093855 -0.003464 0.0
0.099910 -0.002591 0.0
0.102340 0.000161 0.0
0.098441 0.003738 0.0
0.087758 0.006945 0.0
0.071648 0.009165 0.0
0.052036 0.010448 0.0
0.030685 0.010903 0.0
0.009160 0.010622 0.0
-0.011271 0.009809 0.0
-0.029891 0.008811 0.0
-0.046475 0.007774 0.0
-0.061206 0.006958 0.0
-0.074779 0.006615 0.0
-0.088226 0.006832 0.0
-0.102748 0.007691 0.0
-0.119680 0.009241 0.0
-0.140215 0.011294 0.0
-0.165160 0.013651 0.0
-0.194950 0.016139 0.0
-0.229689 0.018600 0.0
-0.269195 0.020906 0.0
-0.313054 0.022953 0.0
-0.360675 0.024669 0.0
-0.411351 0.026008 0.0
-0.464305 0.026946 0.0
-0.518732 0.027481 0.0
-0.573841 0.027628 0.0
-0.628881 0.027412 0.0
-0.683163 0.026870 0.0
-0.736077 0.026044 0.0
-0.787101 0.024979 0.0
-0.835801 0.023720 0.0
-0.881831 0.022310 0.0
-0.924925 0.020785 0.0
-0.964888 0.019178 0.0
-1.001583 0.017517 0.0
-1.034919 0.015820 0.0
-1.064841 0.014102 0.0
-1.091317 0.012374 0.0
-1.114332 0.010641 0.0
-1.133879 0.008906 0.0
-1.149956 0.007170 0.0
-1.162559 0.005433 0.0
-1.171686 0.003693 0.0
-1.177326 0.001947 0.0
-1.179469 0.000196 0.0
-1.178083 -0.001582 0.0
-1.173131 -0.003370 0.0
-1.164672 -0.005088 0.0
-1.152874 -0.006710 0.0
-1.137941 -0.008222 0.0
-1.120102 -0.009616 0.0
-1.099601 -0.010885 0.0
-1.076694 -0.012022 0.0
-1.051646 -0.013026 0.0
-1.024727 -0.013894 0.0
-0.996206 -0.014627 0.0
-0.966352 -0.015228 0.0
-0.935423 -0.015701 0.0
-0.903667 -0.016055 0.0
-0.871317 -0.016296 0.0
-0.838586 -0.016435 0.0
-0.805665 -0.016486 0.0
-0.772718 -0.016460 0.0
-0.739885 -0.016373 0.0
-0.707275 -0.016238 0.0
-0.674969 -0.016068 0.0
-0.643026 -0.015876 0.0
-0.611478 -0.015673 0.0
-0.580338 -0.015468 0.0
-0.549601 -0.015269 0.0
-0.519251 -0.015081 0.0
-0.489266 -0.014905 0.0
-0.459618 -0.014743 0.0
-0.430285 -0.014590 0.0
-0.401252 -0.014443 0.0
-0.372516 -0.014293 0.0
-0.344089 -0.014134 0.0
-0.316002 -0.013953 0.0
-0.288307 -0.013743 0.0
-0.261073 -0.013491 0.0
-0.234394 -0.013189 0.0
-0.208377 -0.012828 0.0
-0.183144 -0.012405 0.0
-0.158823 -0.011916 0.0
-0.135543 -0.011364 0.0
-0.113427 -0.010753 0.0
-0.092582 -0.010092 0.0
-0.073099 -0.009391 0.0
-0.055046 -0.008662 0.0
-0.038465 -0.007918 0.0
-0.023375 -0.007172 0.0
-0.009763 -0.006440 0.0
0.002410 -0.005733 0.0
0.013165 -0.005022 0.0
0.022560 -0.004372 0.0
0.030721 -0.003789 0.0
0.037782 -0.003272 0.0
0.043878 -0.002823 0.0
0.049152 -0.002451 0.0
0.053756 -0.002153 0.0
0.057863 -0.001953 0.0
0.061677 -0.001861 0.0
0.065435 -0.001897 0.0
0.069387 -0.002055 0.0
0.073767 -0.002326 0.0
0.078845 -0.002753 0.0
0.084901 -0.003303 0.0
0.092181 -0.003977 0.0
0.100935 -0.004778 0.0
0.111380 -0.005667 0.0
0.123674 -0.006628 0.0
0.137963 -0.007661 0.0
0.154406 -0.008782 0.0
0.173111 -0.009922 0.0
0.194070 -0.011037 0.0
0.217175 -0.012068 0.0
0.242208 -0.012964 0.0
0.268824 -0.013652 0.0
0.296494 -0.014018 0.0
0.324420 -0.013908 0.0
0.351472 -0.013144 0.0
0.376133 -0.011517 0.0
0.396474 -0.008823 0.0
0.410279 -0.004982 0.0
0.415594 -0.000332 0.0
0.411696 0.004230 0.0
0.399604 0.007863 0.0
0.381549 0.010192 0.0
0.360320 0.011037 0.0
0.338762 0.010522 0.0
0.319270 0.008970 0.0
0.303548 0.006753 0.0
0.292652 0.004142 0.0
0.287300 0.001210 0.0
0.287569 -0.001480 0.0
0.292118 -0.003069 0.0
0.298635 -0.003448 0.0
0.304630 -0.002547 0.0
0.307428 -0.000250 0.0
1.001711 0.005458 0.0
1.005178 0.010662 0.0
1.008160 0.013424 0.0
1.010064 0.015043 0.0
1.010954 0.016076 0.0
1.010977 0.016780 0.0
1.010260 0.017285 0.0
1.008898 0.017666 0.0
1.006960 0.017965 0.0
1.004496 0.018210 0.0
1.001544 0.018420 0.0
0.998131 0.018607 0.0
0.994276 0.018782 0.0
0.989993 0.018949 0.0
0.985294 0.019115 0.0
0.980184 0.019283 0.0
0.974667 0.019457 0.0
0.968743 0.019642 0.0
0.962410 0.019843 0.0
0.955659 0.020065 0.0
0.948477 0.020319 0.0
0.940845 0.020613 0.0
0.932734 0.020961 0.0
0.924106 0.021380 0.0
0.914909 0.021890 0.0
0.905075 0.022519 0.0
0.894515 0.023300 0.0
0.883112 0.024278 0.0
0.870714 0.025514 0.0
0.857119 0.027088 0.0
0.842058 0.029112 0.0
0.825169 0.031737 0.0
0.805965 0.035172 0.0
0.783782 0.039695 0.0
0.757718 0.045678 0.0
0.726553 0.053593 0.0
0.688654 0.064000 0.0
0.641894 0.077473 0.0
0.583649 0.094373 0.0
0.511084 0.114290 0.0
0.422677 0.134855 0.0
0.320323 0.144380 0.0
0.198827 0.101128 0.0
0.065746 -0.034087 0.0
0.500000 0.034081 0.0
1.000000 0.000000 0.0
1.000000 0.000000 0.0
1.000000 0.000000 0.0
1.000000 0.000000 0.0
1.000000 0.000000 0.0
0.500000 0.102220 0.0
0.029890 -0.102243 0.0
0.079077 -0.063525 0.0
0.105386 -0.022031 0.0
0.113978 0.000631 0.0
0.107726 0.021426 0.0
0.086583 0.030212 0.0
0.057331 0.026330 0.0
0.022388 0.017116 0.0
-0.014594 0.011052 0.0
-0.049624 0.011868 0.0
-0.084499 0.018148 0.0
-0.121091 0.026242 0.0
-0.159508 0.033542 0.0
-0.199703 0.038873 0.0
-0.241193 0.041842 0.0
-0.282577 0.042244 0.0
-0.322097 0.040326 0.0
-0.358358 0.036797 0.0
-0.390506 0.032591 0.0
-0.418332 0.028403 0.0
-0.442334 0.025062 0.0
-0.463554 0.023305 0.0
-0.483432 0.023466 0.0
-0.503522 0.025669 0.0
-0.525177 0.029850 0.0
-0.549505 0.035548 0.0
-0.577365 0.042203 0.0
-0.609268 0.049281 0.0
-0.645372 0.056302 0.0
-0.685526 0.062864 0.0
-0.729328 0.068655 0.0
-0.776196 0.073455 0.0
-0.825422 0.077124 0.0
-0.876235 0.079595 0.0
-0.927837 0.080862 0.0
-0.979449 0.080968 0.0
-1.030334 0.079997 0.0
-1.079825 0.078058 0.0
-1.127334 0.075280 0.0
-1.172363 0.071797 0.0
-1.214507 0.067746 0.0
-1.253448 0.063255 0.0
-1.288952 0.058438 0.0
-1.320855 0.053392 0.0
-1.349054 0.048197 0.0
-1.373489 0.042911 0.0
-1.394134 0.037578 0.0
-1.410984 0.032225 0.0
-1.424047 0.026868 0.0
-1.433334 0.021514 0.0
-1.438859 0.016164 0.0
-1.440634 0.010818 0.0
-1.438671 0.005471 0.0
-1.432978 0.000117 0.0
-1.423701 -0.005108 0.0
-1.411144 -0.010222 0.0
-1.395634 -0.015193 0.0
-1.377416 -0.019942 0.0
-1.356646 -0.024424 0.0
-1.333482 -0.028606 0.0
-1.308093 -0.032461 0.0
-1.280666 -0.035968 0.0
-1.251403 -0.039109 0.0
-1.220519 -0.041872 0.0
-1.188234 -0.044252 0.0
-1.154774 -0.046249 0.0
-1.120364 -0.047870 0.0
-1.085221 -0.049130 0.0
-1.049556 -0.050046 0.0
-1.013567 -0.050644 0.0
-0.977433 -0.050952 0.0
-0.941315 -0.051008 0.0
-0.905351 -0.050849 0.0
-0.869651 -0.050517 0.0
-0.834305 -0.050051 0.0
-0.799374 -0.049490 0.0
-0.764899 -0.048871 0.0
-0.730898 -0.048226 0.0
-0.697373 -0.047581 0.0
-0.664309 -0.046957 0.0
-0.631682 -0.046369 0.0
-0.599462 -0.045823 0.0
-0.567618 -0.045318 0.0
-0.536120 -0.044845 0.0
-0.504949 -0.044391 0.0
-0.474095 -0.043934 0.0
-0.443565 -0.043449 0.0
-0.413383 -0.042907 0.0
-0.383592 -0.042276 0.0
-0.354257 -0.041526 0.0
-0.325462 -0.040628 0.0
-0.297311 -0.039558 0.0
-0.269918 -0.038300 0.0
-0.243412 -0.036848 0.0
-0.217919 -0.035204 0.0
-0.193566 -0.033382 0.0
-0.170466 -0.031407 0.0
-0.148716 -0.029309 0.0
-0.128390 -0.027124 0.0
-0.109538 -0.024889 0.0
-0.092188 -0.022642 0.0
-0.076347 -0.020423 0.0
-0.062007 -0.018262 0.0
-0.049111 -0.016143 0.0
-0.037593 -0.014163 0.0
-0.027403 -0.012350 0.0
-0.018454 -0.010721 0.0
-0.010628 -0.009297 0.0
-0.003769 -0.008110 0.0
0.002310 -0.007178 0.0
0.007819 -0.006544 0.0
0.012970 -0.006235 0.0
0.017980 -0.006291 0.0
0.023089 -0.006721 0.0
0.028569 -0.007520 0.0
0.034617 -0.008684 0.0
0.041424 -0.010234 0.0
0.049279 -0.012180 0.0
0.058491 -0.014541 0.0
0.069305 -0.017163 0.0
0.081886 -0.020007 0.0
0.096362 -0.023047 0.0
0.112922 -0.026398 0.0
0.131731 -0.029820 0.0
0.152838 -0.033206 0.0
0.176211 -0.036377 0.0
0.201731 -0.039208 0.0
0.229248 -0.041542 0.0
0.258536 -0.043085 0.0
0.289216 -0.043447 0.0
0.320755 -0.042197 0.0
0.352493 -0.038862 0.0
0.383649 -0.032975 0.0
0.413245 -0.024231 0.0
0.439630 -0.012783 0.0
0.459795 0.000413 0.0
0.470894 0.012673 0.0
0.473676 0.020654 0.0
0.471619 0.023862 0.0
0.467977 0.022897 0.0
0.465162 0.018901 0.0
0.464605 0.013102 0.0
0.466687 0.006607 0.0
0.470454 0.000331 0.0
0.474238 -0.004654 0.0
0.477302 -0.007509 0.0
0.479997 -0.008221 0.0
0.482835 -0.006607 0.0
0.484512 -0.000665 0.0
1.000665 0.003082 0.0
1.002509 0.007727 0.0
1.004930 0.010957 0.0
1.007314 0.013223 0.0
1.009450 0.014871 0.0
1.011289 0.016122 0.0
1.012840 0.017110 0.0
1.014119 0.017924 0.0
1.015145 0.018619 0.0
1.015930 0.019235 0.0
1.016479 0.019797 0.0
1.016796 0.020326 0.0
1.016878 0.020835 0.0
1.016721 0.021335 0.0
1.016319 0.021832 0.0
1.015662 0.022333 0.0
1.014741 0.022845 0.0
1.013545 0.023374 0.0
1.012060 0.023929 0.0
1.010271 0.024519 0.0
1.008161 0.025157 0.0
1.005709 0.025859 0.0
1.002887 0.026647 0.0
0.999665 0.027544 0.0
0.996003 0.028585 0.0
0.991851 0.029810 0.0
0.987148 0.031272 0.0
0.981813 0.033042 0.0
0.975748 0.035213 0.0
0.968819 0.037912 0.0
0.960853 0.041314 0.0
0.951619 0.045658 0.0
0.940797 0.051277 0.0
0.927942 0.058629 0.0
0.912413 0.068336 0.0
0.893281 0.081232 0.0
0.869158 0.098382 0.0
0.837959 0.121050 0.0
0.796521 0.150481 0.0
0.740068 0.187200 0.0
0.661450 0.228969 0.0
0.549222 0.264849 0.0
0.384596 0.266780 0.0
0.143139 0.174799 0.0
0.500000 -0.174807 0.0
1.000000 0.000000 0.0
1.000000 0.000000 0.0
1.000000 0.000000 0.0
1.000000 0.000000 0.0
1.000000 0.000000 0.0
0.500000 0.146596 0.0
0.014498 -0.146631 0.0
0.034345 -0.088171 0.0
0.028946 -0.018294 0.0
-0.011325 0.028573 0.0
-0.068025 0.056437 0.0
-0.121921 0.070241 0.0
-0.174870 0.068501 0.0
-0.223616 0.058634 0.0
-0.263822 0.046722 0.0
-0.297012 0.044418 0.0
-0.330032 0.053492 0.0
-0.367314 0.064772 0.0
-0.408171 0.074288 0.0
-0.451177 0.081329 0.0
-0.495151 0.084850 0.0
-0.538365 0.083834 0.0
-0.578774 0.078665 0.0
-0.614756 0.070700 0.0
-0.645313 0.061393 0.0
-0.670074 0.052188 0.0
-0.689487 0.044691 0.0
-0.704840 0.040249 0.0
-0.717920 0.039480 0.0
-0.730557 0.042382 0.0
-0.744325 0.048559 0.0
-0.760438 0.057280 0.0
-0.779748 0.067640 0.0
-0.802732 0.078731 0.0
-0.829515 0.089739 0.0
-0.859925 0.099989 0.0
-0.893556 0.108963 0.0
-0.929840 0.116299 0.0
-0.968105 0.121773 0.0
-1.007628 0.125282 0.0
-1.047678 0.126827 0.0
-1.087551 0.126487 0.0
-1.126591 0.124404 0.0
-1.164215 0.120765 0.0
-1.199919 0.115785 0.0
-1.233289 0.109691 0.0
-1.264002 0.102708 0.0
-1.291817 0.095049 0.0
-1.316575 0.086904 0.0
-1.338179 0.078433 0.0
-1.356590 0.069764 0.0
-1.371804 0.060992 0.0
-1.383844 0.052182 0.0
-1.392746 0.043372 0.0
-1.398546 0.034583 0.0
-1.401279 0.025819 0.0
-1.400971 0.017077 0.0
-1.397638 0.008348 0.0
-1.391268 -0.000391 0.0
-1.382084 -0.008896 0.0
-1.370339 -0.017116 0.0
-1.356086 -0.025024 0.0
-1.339399 -0.032589 0.0
-1.320374 -0.039790 0.0
-1.299134 -0.046585 0.0
-1.275815 -0.052927 0.0
-1.250573 -0.058771 0.0
-1.223581 -0.064078 0.0
-1.195027 -0.068815 0.0
-1.165117 -0.072961 0.0
-1.134061 -0.076503 0.0
-1.102075 -0.079443 0.0
-1.069370 -0.081791 0.0
-1.036154 -0.083568 0.0
-1.002625 -0.084802 0.0
-0.968969 -0.085533 0.0
-0.935355 -0.085811 0.0
-0.901927 -0.085694 0.0
-0.868809 -0.085246 0.0
-0.836097 -0.084532 0.0
-0.803860 -0.083619 0.0
-0.772143 -0.082569 0.0
-0.740970 -0.081441 0.0
-0.710341 -0.080286 0.0
-0.680240 -0.079147 0.0
-0.650636 -0.078058 0.0
-0.621490 -0.077041 0.0
-0.592753 -0.076106 0.0
-0.564380 -0.075252 0.0
-0.536327 -0.074462 0.0
-0.508560 -0.073713 0.0
-0.481057 -0.072969 0.0
-0.453814 -0.072188 0.0
-0.426843 -0.071321 0.0
-0.400180 -0.070316 0.0
-0.373881 -0.069120 0.0
-0.348026 -0.067683 0.0
-0.322716 -0.065965 0.0
-0.298067 -0.063935 0.0
-0.274207 -0.061580 0.0
-0.251269 -0.058902 0.0
-0.229384 -0.055923 0.0
-0.208669 -0.052681 0.0
-0.189225 -0.049229 0.0
-0.171128 -0.045626 0.0
-0.154430 -0.041936 0.0
-0.139157 -0.038219 0.0
-0.125314 -0.034531 0.0
-0.112887 -0.030921 0.0
-0.101839 -0.027428 0.0
-0.092121 -0.024115 0.0
-0.083676 -0.021034 0.0
-0.076427 -0.018234 0.0
-0.070272 -0.015766 0.0
-0.065084 -0.013687 0.0
-0.060714 -0.012049 0.0
-0.056992 -0.010903 0.0
-0.053727 -0.010292 0.0
-0.050713 -0.010259 0.0
-0.047733 -0.010841 0.0
-0.044566 -0.012048 0.0
-0.040939 -0.013830 0.0
-0.036578 -0.016255 0.0
-0.031258 -0.019335 0.0
-0.024787 -0.023070 0.0
-0.016935 -0.027300 0.0
-0.007422 -0.031962 0.0
0.003983 -0.036973 0.0
0.017214 -0.042263 0.0
0.032212 -0.047762 0.0
0.049168 -0.053327 0.0
0.068106 -0.058567 0.0
0.088903 -0.063337 0.0
0.111452 -0.067479 0.0
0.135644 -0.070627 0.0
0.161279 -0.072220 0.0
0.188051 -0.071736 0.0
0.215628 -0.068637 0.0
0.243675 -0.062404 0.0
0.271907 -0.052631 0.0
0.300248 -0.039110 0.0
0.328865 -0.022041 0.0
0.356356 -0.003463 0.0
0.378479 0.011884 0.0
0.393539 0.019630 0.0
0.403970 0.020340 0.0
0.411728 0.016515 0.0
0.417429 0.010343 0.0
0.420955 0.003757 0.0
0.421877 -0.001509 0.0
0.419973 -0.004693 0.0
0.415295 -0.005856 0.0
0.408148 -0.005422 0.0
0.399844 -0.003940 0.0
0.395424 -0.000589 0.0
1.000302 0.002114 0.0
1.001294 0.005859 0.0
1.002835 0.008862 0.0
1.004566 0.011203 0.0
1.006289 0.013033 0.0
1.007917 0.014492 0.0
1.009418 0.015688 0.0
1.010785 0.016699 0.0
1.012023 0.017581 0.0
1.013134 0.018377 0.0
1.014123 0.019117 0.0
1.014990 0.019823 0.0
1.015735 0.020512 0.0
1.016354 0.021196 0.0
1.016843 0.021884 0.0
1.017196 0.022585 0.0
1.017405 0.023305 0.0
1.017462 0.024053 0.0
1.017358 0.024839 0.0
1.017082 0.025673 0.0
1.016623 0.026572 0.0
1.015967 0.027553 0.0
1.015098 0.028642 0.0
1.014001 0.029868 0.0
1.012654 0.031270 0.0
1.011035 0.032896 0.0
1.009115 0.034809 0.0
1.006865 0.037090 0.0
1.004248 0.039848 0.0
1.001223 0.043232 0.0
0.997740 0.047443 0.0
0.993737 0.052765 0.0
0.989133 0.059596 0.0
0.983803 0.068495 0.0
0.977541 0.080260 0.0
0.969966 0.096015 0.0
0.960350 0.117337 0.0
0.947247 0.146397 0.0
0.927758 0.186062 0.0
0.896036 0.239793 0.0
0.840292 0.310737 0.0
0.737140 0.398463 0.0
0.544292 0.490640 0.0
0.209375 0.527313 0.0
0.500000 -0.527329 0.0
1.000000 0.000000 0.0
1.000000 0.000000 0.0
1.000000 0.000000 0.0
1.000000 0.000000 0.0
1.000000 0.000000 0.0
0.500000 0.148319 0.0
-0.012764 -0.148365 0.0
-0.054197 -0.064851 0.0
-0.118021 0.027609 0.0
-0.182582 0.087503 0.0
-0.244439 0.116064 0.0
-0.308920 0.128990 0.0
-0.370201 0.123982 0.0
-0.421575 0.103274 0.0
-0.454976 0.075689 0.0
-0.473822 0.067486 0.0
-0.495926 0.085548 0.0
-0.529251 0.103323 0.0
-0.568202 0.115545 0.0
-0.609566 0.124442 0.0
-0.652416 0.128561 0.0
-0.694480 0.125402 0.0
-0.732650 0.115677 0.0
-0.764835 0.101856 0.0
-0.789945 0.085905 0.0
-0.807412 0.069905 0.0
-0.817686 0.056661 0.0
-0.822582 0.048528 0.0
-0.824589 0.046287 0.0
-0.826011 0.049633 0.0
-0.828683 0.057748 0.0
-0.833956 0.069478 0.0
-0.842705 0.083500 0.0
-0.855361 0.098511 0.0
-0.871982 0.113363 0.0
-0.892332 0.127126 0.0
-0.915974 0.139100 0.0
-0.942331 0.148803 0.0
-0.970749 0.155950 0.0
-1.000540 0.160418 0.0
-1.031019 0.162220 0.0
-1.061530 0.161477 0.0
-1.091469 0.158393 0.0
-1.120298 0.153229 0.0
-1.147559 0.146286 0.0
-1.172878 0.137880 0.0
-1.195970 0.128323 0.0
-1.216630 0.117910 0.0
-1.234729 0.106901 0.0
-1.250201 0.095513 0.0
-1.263024 0.083919 0.0
-1.273209 0.072238 0.0
-1.280779 0.060547 0.0
-1.285757 0.048886 0.0
-1.288150 0.037263 0.0
-1.287951 0.025672 0.0
-1.285143 0.014108 0.0
-1.279729 0.002569 0.0
-1.271901 -0.008811 0.0
-1.261791 -0.019770 0.0
-1.249380 -0.030398 0.0
-1.234722 -0.040653 0.0
-1.217879 -0.050490 0.0
-1.198935 -0.059857 0.0
-1.177999 -0.068694 0.0
-1.155200 -0.076935 0.0
-1.130689 -0.084515 0.0
-1.104640 -0.091375 0.0
-1.077248 -0.097464 0.0
-1.048720 -0.102750 0.0
-1.019275 -0.107215 0.0
-0.989132 -0.110861 0.0
-0.958506 -0.113704 0.0
-0.927605 -0.115772 0.0
-0.896629 -0.117103 0.0
-0.865765 -0.117753 0.0
-0.835179 -0.117792 0.0
-0.805015 -0.117305 0.0
-0.775385 -0.116383 0.0
-0.746371 -0.115120 0.0
-0.718029 -0.113610 0.0
-0.690386 -0.111939 0.0
-0.663443 -0.110188 0.0
-0.637181 -0.108430 0.0
-0.611562 -0.106723 0.0
-0.586531 -0.105116 0.0
-0.562021 -0.103639 0.0
-0.537960 -0.102306 0.0
-0.514276 -0.101111 0.0
-0.490900 -0.100032 0.0
-0.467775 -0.099034 0.0
-0.444857 -0.098068 0.0
-0.422117 -0.097072 0.0
-0.399549 -0.095976 0.0
-0.377173 -0.094702 0.0
-0.355032 -0.093173 0.0
-0.333201 -0.091315 0.0
-0.311779 -0.089066 0.0
-0.290885 -0.086378 0.0
-0.270656 -0.083226 0.0
-0.251239 -0.079611 0.0
-0.232775 -0.075563 0.0
-0.215395 -0.071136 0.0
-0.199205 -0.066408 0.0
-0.184284 -0.061466 0.0
-0.170678 -0.056401 0.0
-0.158406 -0.051300 0.0
-0.147463 -0.046237 0.0
-0.137826 -0.041279 0.0
-0.129459 -0.036484 0.0
-0.122316 -0.031919 0.0
-0.116341 -0.027649 0.0
-0.111466 -0.023743 0.0
-0.107602 -0.020276 0.0
-0.104641 -0.017326 0.0
-0.102453 -0.014968 0.0
-0.100887 -0.013273 0.0
-0.099775 -0.012299 0.0
-0.098941 -0.012101 0.0
-0.098199 -0.012720 0.0
-0.097354 -0.014181 0.0
-0.096192 -0.016487 0.0
-0.094495 -0.019656 0.0
-0.092065 -0.023684 0.0
-0.088722 -0.028534 0.0
-0.084298 -0.034112 0.0
-0.078639 -0.040322 0.0
-0.071628 -0.047029 0.0
-0.063093 -0.053973 0.0
-0.052937 -0.061206 0.0
-0.041232 -0.068545 0.0
-0.027960 -0.075559 0.0
-0.013067 -0.082035 0.0
0.003272 -0.087668 0.0
0.020735 -0.092094 0.0
0.039160 -0.094812 0.0
0.058465 -0.095223 0.0
0.078524 -0.092787 0.0
0.099241 -0.087018 0.0
0.120560 -0.077567 0.0
0.142485 -0.064440 0.0
0.165101 -0.047944 0.0
0.188614 -0.028564 0.0
0.212398 -0.008922 0.0
0.232484 0.005289 0.0
0.245200 0.011534 0.0
0.250478 0.012284 0.0
0.248948 0.010403 0.0
0.241387 0.007732 0.0
0.229437 0.005544 0.0
0.215211 0.004384 0.0
0.200859 0.004098 0.0
0.188554 0.004076 0.0
0.180144 0.003277 0.0
0.176859 -0.000101 0.0
1.000167 0.001645 0.0
1.000766 0.004737 0.0
1.001787 0.007423 0.0
1.003032 0.009666 0.0
1.004359 0.011519 0.0
1.005682 0.013055 0.0
1.006956 0.014350 0.0
1.008160 0.015466 0.0
1.009283 0.016454 0.0
1.010322 0.017354 0.0
1.011277 0.018197 0.0
1.012144 0.019008 0.0
1.012924 0.019803 0.0
1.013613 0.020597 0.0
1.014208 0.021399 0.0
1.014706 0.022219 0.0
1.015104 0.023065 0.0
1.015397 0.023944 0.0
1.015581 0.024868 0.0
1.015651 0.025849 0.0
1.015603 0.026903 0.0
1.015434 0.028049 0.0
1.015137 0.029312 0.0
1.014709 0.030724 0.0
1.014148 0.032323 0.0
1.013453 0.034158 0.0
1.012626 0.036292 0.0
1.011678 0.038805 0.0
1.010627 0.041800 0.0
1.009511 0.045421 0.0
1.008390 0.049859 0.0
1.007359 0.055383 0.0
1.006564 0.062377 0.0
1.006213 0.071395 0.0
1.006583 0.083254 0.0
1.008004 0.099176 0.0
1.010772 0.121025 0.0
1.014888 0.151696 0.0
1.019370 0.195771 0.0
1.020531 0.260645 0.0
1.007751 0.358409 0.0
0.953064 0.508629 0.0
0.786188 0.740198 0.0
0.331086 1.067774 0.0
0.500000 -1.067811 0.0
1.000000 0.000000 0.0
1.000000 0.000000 0.0
1.000000 0.000000 0.0
1.000000 0.000000 0.0
1.000000 0.000000 0.0
0.500000 0.087522 0.0
-0.048020 -0.087582 0.0
-0.145169 0.012948 0.0
-0.230528 0.098993 0.0
-0.302764 0.152916 0.0
-0.375320 0.185062 0.0
-0.448328 0.197481 0.0
-0.518524 0.186970 0.0
-0.575252 0.148387 0.0
-0.594387 0.083113 0.0
-0.578433 0.062954 0.0
-0.578870 0.112621 0.0
-0.610626 0.141331 0.0
-0.648191 0.154053 0.0
-0.686523 0.165629 0.0
-0.728435 0.172136 0.0
-0.770643 0.166097 0.0
-0.807165 0.149673 0.0
-0.835396 0.128275 0.0
-0.854592 0.103791 0.0
-0.863520 0.078413 0.0
-0.862300 0.057208 0.0
-0.853963 0.044540 0.0
-0.842534 0.040853 0.0
-0.831051 0.045006 0.0
-0.821614 0.055610 0.0
-0.815707 0.070982 0.0
-0.814215 0.089253 0.0
-0.817464 0.108664 0.0
-0.825364 0.127731 0.0
-0.837545 0.145290 0.0
-0.853459 0.160492 0.0
-0.872458 0.172767 0.0
-0.893843 0.181789 0.0
-0.916900 0.187428 0.0
-0.940928 0.189718 0.0
-0.965261 0.188823 0.0
-0.989283 0.185008 0.0
-1.012448 0.178609 0.0
-1.034291 0.170011 0.0
-1.054435 0.159619 0.0
-1.072596 0.147836 0.0
-1.088578 0.135039 0.0
-1.102266 0.121559 0.0
-1.113610 0.107671 0.0
-1.122609 0.093583 0.0
-1.129291 0.079440 0.0
-1.133699 0.065323 0.0
-1.135875 0.051264 0.0
-1.135853 0.037255 0.0
-1.133649 0.023277 0.0
-1.129262 0.009308 0.0
-1.122623 -0.004684 0.0
-1.113832 -0.018178 0.0
-1.103006 -0.031339 0.0
-1.090110 -0.044137 0.0
-1.075161 -0.056520 0.0
-1.058208 -0.068419 0.0
-1.039322 -0.079758 0.0
-1.018601 -0.090451 0.0
-0.996169 -0.100409 0.0
-0.972179 -0.109543 0.0
-0.946806 -0.117768 0.0
-0.920257 -0.125013 0.0
-0.892753 -0.131232 0.0
-0.864527 -0.136404 0.0
-0.835812 -0.140530 0.0
-0.806835 -0.143638 0.0
-0.777812 -0.145762 0.0
-0.748955 -0.146946 0.0
-0.720467 -0.147261 0.0
-0.692531 -0.146805 0.0
-0.665294 -0.145692 0.0
-0.638874 -0.144046 0.0
-0.613351 -0.141994 0.0
-0.588773 -0.139656 0.0
-0.565159 -0.137150 0.0
-0.542498 -0.134581 0.0
-0.520754 -0.132042 0.0
-0.499872 -0.129613 0.0
-0.479774 -0.127356 0.0
-0.460368 -0.125315 0.0
-0.441552 -0.123506 0.0
-0.423221 -0.121925 0.0
-0.405275 -0.120540 0.0
-0.387619 -0.119306 0.0
-0.370172 -0.118161 0.0
-0.352865 -0.117025 0.0
-0.335653 -0.115803 0.0
-0.318514 -0.114390 0.0
-0.301463 -0.112677 0.0
-0.284544 -0.110561 0.0
-0.267837 -0.107949 0.0
-0.251457 -0.104769 0.0
-0.235544 -0.100976 0.0
-0.220257 -0.096565 0.0
-0.205761 -0.091569 0.0
-0.192207 -0.086064 0.0
-0.179720 -0.080157 0.0
-0.168385 -0.073972 0.0
-0.158250 -0.067636 0.0
-0.149323 -0.061264 0.0
-0.141589 -0.054950 0.0
-0.135020 -0.048773 0.0
-0.129578 -0.042799 0.0
-0.125225 -0.037100 0.0
-0.121916 -0.031752 0.0
-0.119597 -0.026836 0.0
-0.118199 -0.022445 0.0
-0.117633 -0.018683 0.0
-0.117786 -0.015647 0.0
-0.118526 -0.013421 0.0
-0.119708 -0.012079 0.0
-0.121182 -0.011681 0.0
-0.122791 -0.012274 0.0
-0.124371 -0.013893 0.0
-0.125750 -0.016559 0.0
-0.126751 -0.020280 0.0
-0.127207 -0.025035 0.0
-0.126964 -0.030769 0.0
-0.125883 -0.037382 0.0
-0.123847 -0.044747 0.0
-0.120760 -0.052702 0.0
-0.116543 -0.061053 0.0
-0.111171 -0.069654 0.0
-0.104698 -0.078276 0.0
-0.097198 -0.086600 0.0
-0.088768 -0.094317 0.0
-0.079504 -0.100989 0.0
-0.069498 -0.106242 0.0
-0.058907 -0.109679 0.0
-0.047850 -0.110717 0.0
-0.036349 -0.108852 0.0
-0.024361 -0.103657 0.0
-0.011776 -0.094830 0.0
0.001467 -0.082344 0.0
0.015319 -0.066509 0.0
0.029759 -0.047952 0.0
0.044563 -0.028122 0.0
0.058727 -0.009761 0.0
0.069589 0.003008 0.0
0.075107 0.010014 0.0
0.075648 0.013662 0.0
0.072413 0.015269 0.0
0.066841 0.015530 0.0
0.060521 0.014944 0.0
0.054932 0.013478 0.0
0.051077 0.010855 0.0
0.049291 0.006695 0.0
0.048702 0.000354 0.0
1.000105 0.001372 0.0
1.000501 0.004015 0.0
1.001211 0.006414 0.0
1.002129 0.008512 0.0
1.003159 0.010316 0.0
1.004233 0.011861 0.0
1.005305 0.013197 0.0
1.006348 0.014371 0.0
1.007346 0.015426 0.0
1.008290 0.016398 0.0
1.009172 0.017317 0.0
1.009987 0.018205 0.0
1.010732 0.019081 0.0
1.011403 0.019959 0.0
1.011997 0.020848 0.0
1.012510 0.021759 0.0
1.012940 0.022698 0.0
1.013284 0.023674 0.0
1.013542 0.024697 0.0
1.013711 0.025780 0.0
1.013792 0.026938 0.0
1.013786 0.028190 0.0
1.013694 0.029559 0.0
1.013522 0.031076 0.0
1.013278 0.032776 0.0
1.012976 0.034703 0.0
1.012638 0.036912 0.0
1.012302 0.039470 0.0
1.012025 0.042463 0.0
1.011896 0.046003 0.0
1.012054 0.050240 0.0
1.012710 0.055377 0.0
1.014182 0.061705 0.0
1.016951 0.069650 0.0
1.021725 0.079855 0.0
1.029543 0.093336 0.0
1.041888 0.111751 0.0
1.060810 0.137931 0.0
1.088948 0.176916 0.0
1.129165 0.238122 0.0
1.182778 0.340100 0.0
1.242320 0.522083 0.0
1.274097 0.861843 0.0
0.638234 1.783749 0.0
-1.835804 -0.699456 0.0
-3.640678 0.000000 0.0
-3.599571 0.000000 0.0
-3.579589 0.000000 0.0
-3.552107 0.000000 0.0
-3.497842 0.000000 0.0
-1.730628 0.019748 0.0
-0.083248 0.034325 0.0
-0.223756 0.119337 0.0
-0.327288 0.181496 0.0
-0.412104 0.227465 0.0
-0.485939 0.256904 0.0
-0.556960 0.269667 0.0
-0.630182 0.258202 0.0
-0.699399 0.203100 0.0
-0.690826 0.038962 0.0
-0.595680 -0.003995 0.0
-0.568384 0.152711 0.0
-0.622668 0.187282 0.0
-0.662941 0.185939 0.0
-0.694463 0.203597 0.0
-0.737942 0.219559 0.0
-0.785920 0.208860 0.0
-0.823473 0.180985 0.0
-0.848898 0.150620 0.0
-0.864025 0.115769 0.0
-0.864964 0.076302 0.0
-0.849994 0.043129 0.0
-0.825394 0.025680 0.0
-0.798579 0.021469 0.0
-0.773070 0.027398 0.0
-0.751018 0.041730 0.0
-0.734146 0.062084 0.0
-0.723317 0.085828 0.0
-0.718622 0.110644 0.0
-0.719684 0.134713 0.0
-0.725877 0.156682 0.0
-0.736458 0.175594 0.0
-0.750627 0.190833 0.0
-0.767575 0.202056 0.0
-0.786502 0.209144 0.0
-0.806632 0.212160 0.0
-0.827233 0.211314 0.0
-0.847631 0.206936 0.0
-0.867228 0.199443 0.0
-0.885522 0.189313 0.0
-0.902116 0.177054 0.0
-0.916724 0.163171 0.0
-0.929175 0.148138 0.0
-0.939400 0.132373 0.0
-0.947415 0.116215 0.0
-0.953294 0.099917 0.0
-0.957141 0.083637 0.0
-0.959054 0.067448 0.0
-0.959090 0.051350 0.0
-0.957237 0.035293 0.0
-0.953424 0.019222 0.0
-0.947585 0.003137 0.0
-0.939915 -0.012822 0.0
-0.930465 -0.028281 0.0
-0.919090 -0.043437 0.0
-0.905799 -0.058227 0.0
-0.890603 -0.072574 0.0
-0.873537 -0.086384 0.0
-0.854664 -0.099553 0.0
-0.834070 -0.111970 0.0
-0.811874 -0.123518 0.0
-0.788219 -0.134079 0.0
-0.763285 -0.143538 0.0
-0.737288 -0.151791 0.0
-0.710467 -0.158780 0.0
-0.683070 -0.164478 0.0
-0.655348 -0.168893 0.0
-0.627536 -0.172064 0.0
-0.599854 -0.174040 0.0
-0.572528 -0.174852 0.0
-0.545785 -0.174587 0.0
-0.519826 -0.173376 0.0
-0.494813 -0.171370 0.0
-0.470873 -0.168729 0.0
-0.448093 -0.165614 0.0
-0.426526 -0.162180 0.0
-0.406194 -0.158572 0.0
-0.387090 -0.154923 0.0
-0.369182 -0.151350 0.0
-0.352413 -0.147955 0.0
-0.336704 -0.144822 0.0
-0.321954 -0.142005 0.0
-0.308054 -0.139533 0.0
-0.294882 -0.137401 0.0
-0.282320 -0.135573 0.0
-0.270251 -0.133998 0.0
-0.258557 -0.132610 0.0
-0.247128 -0.131313 0.0
-0.235867 -0.129989 0.0
-0.224700 -0.128509 0.0
-0.213578 -0.126732 0.0
-0.202482 -0.124520 0.0
-0.191434 -0.121744 0.0
-0.180496 -0.118292 0.0
-0.169775 -0.114088 0.0
-0.159415 -0.109099 0.0
-0.149591 -0.103355 0.0
-0.140474 -0.096949 0.0
-0.132214 -0.090020 0.0
-0.124917 -0.082741 0.0
-0.118633 -0.075286 0.0
-0.113368 -0.067805 0.0
-0.109100 -0.060411 0.0
-0.105800 -0.053182 0.0
-0.103446 -0.046185 0.0
-0.102015 -0.039498 0.0
-0.101481 -0.033198 0.0
-0.101817 -0.027373 0.0
-0.102983 -0.022139 0.0
-0.104910 -0.017629 0.0
-0.107500 -0.013959 0.0
-0.110636 -0.011233 0.0
-0.114193 -0.009528 0.0
-0.118046 -0.008906 0.0
-0.122066 -0.009420 0.0
-0.126120 -0.011113 0.0
-0.130068 -0.014013 0.0
-0.133763 -0.018129 0.0
-0.137058 -0.023435 0.0
-0.139815 -0.029856 0.0
-0.141915 -0.037275 0.0
-0.143266 -0.045539 0.0
-0.143801 -0.054461 0.0
-0.143485 -0.063827 0.0
-0.142329 -0.073407 0.0
-0.140395 -0.082929 0.0
-0.137775 -0.092068 0.0
-0.134584 -0.100470 0.0
-0.130947 -0.107736 0.0
-0.126987 -0.113461 0.0
-0.122825 -0.117214 0.0
-0.118541 -0.118522 0.0
-0.114140 -0.116949 0.0
-0.109548 -0.112140 0.0
-0.104612 -0.103869 0.0
-0.099077 -0.092083 0.0
-0.092625 -0.077076 0.0
-0.084936 -0.059513 0.0
-0.075764 -0.040537 0.0