# vtk DataFile Version 3.0
Scalar Field
ASCII
DATASET RECTILINEAR_GRID
DIMENSIONS 200 50 1
X_COORDINATES 200 double
0.050000 0.150000 0.250000 0.350000 0.450000 0.550000 0.650000 0.750000 0.850000 0.950000 1.050000 1.150000 1.250000 1.350000 1.450000 1.550000 1.650000 1.750000 1.850000 1.950000 2.050000 2.150000 2.250000 2.350000 2.450000 2.550000 2.650000 2.750000 2.850000 2.950000 3.050000 3.150000 3.250000 3.350000 3.450000 3.550000 3.650000 3.750000 3.850000 3.950000 4.050000 4.150000 4.250000 4.350000 4.450000 4.550000 4.650000 4.750000 4.850000 4.950000 5.050000 5.150000 5.250000 5.350000 5.450000 5.550000 5.650000 5.750000 5.850000 5.950000 6.050000 6.150000 6.250000 6.350000 6.450000 6.550000 6.650000 6.750000 6.850000 6.950000 7.050000 7.150000 7.250000 7.350000 7.450000 7.550000 7.650000 7.750000 7.850000 7.950000 8.050000 8.150000 8.250000 8.350000 8.450000 8.550000 8.650000 8.750000 8.850000 8.950000 9.050000 9.150000 9.250000 9.350000 9.450000 9.550000 9.650000 9.750000 9.850000 9.950000 10.050000 10.150000 10.250000 10.350000 10.450000 10.550000 10.650000 10.750000 10.850000 10.950000 11.050000 11.150000 11.250000 11.350000 11.450000 11.550000 11.650000 11.750000 11.850000 11.950000 12.050000 12.150000 12.250000 12.350000 12.450000 12.550000 12.650000 12.750000 12.850000 12.950000 13.050000 13.150000 13.250000 13.350000 13.450000 13.550000 13.650000 13.750000 13.850000 13.950000 14.050000 14.150000 14.250000 14.350000 14.450000 14.550000 14.650000 14.750000 14.850000 14.950000 15.050000 15.150000 15.250000 15.350000 15.450000 15.550000 15.650000 15.750000 15.850000 15.950000 16.050000 16.150000 16.250000 16.350000 16.450000 16.550000 16.650000 16.750000 16.850000 16.950000 17.050000 17.150000 17.250000 17.350000 17.450000 17.550000 17.650000 17.750000 17.850000 17.950000 18.050000 18.150000 18.250000 18.350000 18.450000 18.550000 18.650000 18.750000 18.850000 18.950000 19.050000 19.150000 19.250000 19.350000 19.450000 19.550000 19.650000 19.750000 19.850000 19.950000 
Y_COORDINATES 50 double
0.050000 0.150000 0.250000 0.350000 0.450000 0.550000 0.650000 0.750000 0.850000 0.950000 1.050000 1.150000 1.250000 1.350000 1.450000 1.550000 1.650000 1.750000 1.850000 1.950000 2.050000 2.150000 2.250000 2.350000 2.450000 2.550000 2.650000 2.750000 2.850000 2.950000 3.050000 3.150000 3.250000 3.350000 3.450000 3.550000 3.650000 3.750000 3.850000 3.950000 4.050000 4.150000 4.250000 4.350000 4.450000 4.550000 4.650000 4.750000 4.850000 4.950000 
Z_COORDINATES 1 double
0.0
POINT_DATA 10000
SCALARS Skalarfeld double 1
LOOKUP_TABLE default
10.294653
10.282222
10.275135
10.270418
10.266932
10.264171
10.261883
10.259926
10.258214
10.256692
10.255324
10.254084
10.252954
10.251923
10.250983
10.250130
10.249362
10.248680
10.248086
10.247585
10.247184
10.246890
10.246714
10.246670
10.246777
10.247055
10.247536
10.248254
10.249259
10.250609
10.252382
10.254674
10.257607
10.261326
10.265999
10.271797
10.278859
10.287205
10.296587
10.306259
10.314717
10.318143
10.318327
10.335099
10.335099
0.000000
0.000000
0.000000
0.000000
0.000000
-2.464485
-2.464486
-2.467193
-2.469877
-2.468984
-2.463490
-2.455363
-2.446557
-2.432444
-2.411270
-2.385280
-2.358159
-2.330796
-2.305155
-2.283611
-2.268953
-2.263997
-2.271072
-2.291568
-2.325652
-2.372167
-2.428692
-2.491750
-2.557152
-2.620438
-2.677366
-2.724366
-2.758871
-2.779457
-2.785763
-2.778303
-2.759239
-2.730416
-2.693942
-2.651839
-2.605868
-2.557476
-2.507802
-2.457719
-2.407884
-2.358800
-2.310862
-2.264397
-2.219690
-2.177006
-2.136589
-2.098665
-2.063439
-2.031085
-2.001745
-1.975517
-1.952454
-1.932560
-1.915785
-1.902029
-1.891144
-1.882938
-1.877180
-1.873609
-1.871940
-1.871868
-1.873082
-1.875265
-1.878106
-1.881304
-1.884575
-1.887657
-1.890314
-1.892339
-1.893558
-1.893827
-1.893041
-1.891124
-1.888043
-1.883799
-1.878435
-1.872030
-1.864700
-1.856590
-1.847870
-1.838731
-1.829381
-1.820045
-1.810963
-1.802392
-1.794612
-1.787925
-1.782618
-1.778624
-1.776194
-1.775723
-1.777382
-1.781303
-1.787527
-1.795975
-1.806728
-1.819692
-1.834704
-1.851550
-1.869970
-1.889657
-1.910215
-1.931070
-1.951622
-1.971832
-1.992523
-2.014122
-2.036600
-2.059337
-2.081383
-2.103131
-2.124745
-2.146147
-2.167261
-2.188077
-2.208638
-2.229055
-2.249465
-2.270030
-2.290908
-2.312209
-2.333993
-2.356256
-2.379140
-2.403190
-2.427334
-2.451479
-2.475499
-2.499264
-2.522651
-2.545547
-2.567857
-2.589504
-2.610431
-2.630599
-2.649988
-2.668593
-2.686423
-2.703495
-2.719838
-2.735486
-2.750477
-2.764854
-2.778662
-2.791947
-2.804759
-2.817146
-2.829154
-2.840806
-2.851196
10.280587
10.276909
10.272727
10.269118
10.266119
10.263604
10.261454
10.259581
10.257925
10.256441
10.255100
10.253879
10.252764
10.251743
10.250809
10.249959
10.249192
10.248508
10.247909
10.247399
10.246984
10.246672
10.246472
10.246397
10.246463
10.246689
10.247101
10.247730
10.248617
10.249813
10.251382
10.253404
10.255980
10.259228
10.263288
10.268308
10.274415
10.281663
10.289917
10.298673
10.306650
10.312197
10.322183
10.346094
10.346094
0.000000
0.000000
0.000000
0.000000
0.000000
-2.467986
-2.467986
-2.471111
-2.473902
-2.473309
-2.466173
-2.456938
-2.449984
-2.436916
-2.416125
-2.389729
-2.360643
-2.331324
-2.303764
-2.280275
-2.263903
-2.257825
-2.264619
-2.285774
-2.321435
-2.370324
-2.429817
-2.496165
-2.564865
-2.631129
-2.690430
-2.739002
-2.774218
-2.794769
-2.800664
-2.792446
-2.771596
-2.740774
-2.702397
-2.658610
-2.611216
-2.561657
-2.511044
-2.460206
-2.409758
-2.360160
-2.311771
-2.264891
-2.219792
-2.176728
-2.135945
-2.097675
-2.062128
-2.029489
-1.999905
-1.973483
-1.950283
-1.930313
-1.913527
-1.899823
-1.889050
-1.881010
-1.875465
-1.872146
-1.870759
-1.870991
-1.872520
-1.875022
-1.878178
-1.881681
-1.885239
-1.888586
-1.891481
-1.893713
-1.895108
-1.895521
-1.894846
-1.893011
-1.889981
-1.885759
-1.880388
-1.873950
-1.866563
-1.858377
-1.849565
-1.840322
-1.830860
-1.821406
-1.812204
-1.803514
-1.795609
-1.788763
-1.783202
-1.779053
-1.776549
-1.775964
-1.777497
-1.781313
-1.787509
-1.795766
-1.806405
-1.819288
-1.834246
-1.851063
-1.869477
-1.889190
-1.909893
-1.931094
-1.951942
-1.971833
-1.992232
-2.013536
-2.035628
-2.058182
-2.080683
-2.102319
-2.124017
-2.145561
-2.166791
-2.187739
-2.208449
-2.229015
-2.249611
-2.270417
-2.291553
-2.313116
-2.335163
-2.357722
-2.380924
-2.404824
-2.428986
-2.453172
-2.477226
-2.501010
-2.524398
-2.547281
-2.569562
-2.591169
-2.612045
-2.632153
-2.651476
-2.670010
-2.687763
-2.704756
-2.721016
-2.736577
-2.751477
-2.765757
-2.779465
-2.792646
-2.805353
-2.817646
-2.829607
-2.841402
-2.851293
10.273301
10.271934
10.269558
10.267029
10.264655
10.262510
10.260590
10.258867
10.257312
10.255898
10.254606
10.253420
10.252328
10.251322
10.250395
10.249545
10.248770
10.248070
10.247447
10.246904
10.246444
10.246074
10.245799
10.245629
10.245574
10.245646
10.245858
10.246229
10.246778
10.247526
10.248498
10.249720
10.251217
10.253013
10.255123
10.257553
10.260289
10.263309
10.266628
10.270498
10.276062
10.287680
10.316917
10.371684
10.371684
0.000000
0.000000
0.000000
0.000000
0.000000
-2.469037
-2.469037
-2.474348
-2.477151
-2.478763
-2.474120
-2.467019
-2.460272
-2.448963
-2.428914
-2.400290
-2.367347
-2.333809
-2.301788
-2.273733
-2.253517
-2.245276
-2.252020
-2.275230
-2.314815
-2.369131
-2.435078
-2.508335
-2.583757
-2.655917
-2.719734
-2.771085
-2.807246
-2.827069
-2.830831
-2.818878
-2.794080
-2.759321
-2.717299
-2.670326
-2.620265
-2.568540
-2.516197
-2.463983
-2.412423
-2.361894
-2.312684
-2.265045
-2.219216
-2.175444
-2.133977
-2.095060
-2.058919
-2.025750
-1.995720
-1.968950
-1.945514
-1.925430
-1.908654
-1.895085
-1.884561
-1.876875
-1.871775
-1.868975
-1.868163
-1.869010
-1.871177
-1.874323
-1.878114
-1.882227
-1.886361
-1.890237
-1.893605
-1.896249
-1.897990
-1.898685
-1.898229
-1.896553
-1.893621
-1.889438
-1.884045
-1.877525
-1.870004
-1.861637
-1.852608
-1.843120
-1.833391
-1.823651
-1.814148
-1.805140
-1.796893
-1.789667
-1.783689
-1.779161
-1.776309
-1.775368
-1.776534
-1.779961
-1.785729
-1.793764
-1.804127
-1.816747
-1.831474
-1.848091
-1.866329
-1.885884
-1.906400
-1.927297
-1.947943
-1.969024
-1.989985
-2.011426
-2.033463
-2.055892
-2.078304
-2.100365
-2.122322
-2.144172
-2.165854
-2.187374
-2.208772
-2.230129
-2.251569
-2.273220
-2.295181
-2.317522
-2.340284
-2.363485
-2.387148
-2.411221
-2.435474
-2.459701
-2.483739
-2.507450
-2.530715
-2.553432
-2.575518
-2.596907
-2.617551
-2.637418
-2.656493
-2.674771
-2.692261
-2.708980
-2.724953
-2.740208
-2.754784
-2.768719
-2.782061
-2.794861
-2.807181
-2.819094
-2.830702
-2.842170
-2.851511
10.268622
10.267973
10.266546
10.264787
10.262959
10.261190
10.259525
10.257979
10.256548
10.255222
10.253992
10.252850
10.251787
10.250797
10.249877
10.249024
10.248235
10.247512
10.246853
10.246261
10.245738
10.245285
10.244906
10.244604
10.244381
10.244238
10.244176
10.244189
10.244268
10.244394
10.244532
10.244625
10.244581
10.244258
10.243445
10.241836
10.239014
10.234468
10.227738
10.218960
10.210489
10.210943
10.240607
10.321455
10.321455
0.000000
0.000000
0.000000
0.000000
0.000000
-2.462636
-2.462636
-2.470469
-2.478090
-2.483167
-2.485464
-2.485422
-2.483504
-2.475837
-2.454974
-2.418222
-2.377023
-2.337242
-2.298485
-2.262314
-2.234824
-2.222450
-2.228749
-2.254905
-2.300325
-2.362756
-2.438379
-2.522022
-2.607587
-2.688679
-2.759373
-2.814984
-2.852644
-2.871489
-2.871398
-2.854404
-2.824058
-2.783831
-2.736813
-2.685525
-2.631887
-2.577282
-2.522658
-2.468634
-2.415607
-2.363837
-2.313516
-2.264824
-2.217967
-2.173181
-2.130731
-2.090880
-2.053879
-2.019950
-1.989279
-1.962011
-1.938241
-1.918001
-1.901254
-1.887893
-1.877746
-1.870588
-1.866146
-1.864113
-1.864152
-1.865908
-1.869016
-1.873112
-1.877839
-1.882855
-1.887839
-1.892496
-1.896562
-1.899812
-1.902061
-1.903166
-1.903025
-1.901573
-1.898775
-1.894634
-1.889188
-1.882520
-1.874760
-1.866081
-1.856683
-1.846781
-1.836599
-1.826371
-1.816349
-1.806792
-1.797963
-1.790117
-1.783493
-1.778315
-1.774813
-1.773207
-1.773691
-1.776413
-1.781461
-1.788845
-1.798567
-1.810561
-1.824693
-1.840766
-1.858523
-1.877648
-1.897747
-1.918663
-1.940313
-1.961891
-1.983558
-2.005570
-2.028023
-2.050815
-2.073725
-2.096582
-2.119409
-2.142215
-2.164978
-2.187699
-2.210400
-2.233128
-2.255955
-2.278950
-2.302170
-2.325648
-2.349391
-2.373389
-2.397610
-2.421971
-2.446327
-2.470521
-2.494415
-2.517891
-2.540848
-2.563205
-2.584895
-2.605867
-2.626084
-2.645523
-2.664170
-2.682021
-2.699083
-2.715366
-2.730889
-2.745676
-2.759759
-2.773175
-2.785970
-2.798199
-2.809927
-2.821233
-2.832213
-2.842981
-2.851836
10.265164
10.264791
10.263867
10.262614
10.261209
10.259766
10.258345
10.256979
10.255681
10.254453
10.253294
10.252202
10.251173
10.250205
10.249293
10.248437
10.247634
10.246884
10.246187
10.245542
10.244949
10.244407
10.243914
10.243469
10.243064
10.242692
10.242336
10.241972
10.241559
10.241035
10.240304
10.239221
10.237562
10.234993
10.231011
10.224868
10.215459
10.201179
10.179772
10.148335
10.104064
10.047697
9.994482
9.996076
9.996076
0.000000
0.000000
0.000000
0.000000
0.000000
-2.452803
-2.452803
-2.463534
-2.477603
-2.491336
-2.503503
-2.513619
-2.521700
-2.523938
-2.501907
-2.442180
-2.386107
-2.340775
-2.294005
-2.244130
-2.203903
-2.184902
-2.190318
-2.220217
-2.273259
-2.346456
-2.435119
-2.532973
-2.632613
-2.726259
-2.806706
-2.868402
-2.908262
-2.925811
-2.920823
-2.897353
-2.859938
-2.812853
-2.759679
-2.703166
-2.645271
-2.587289
-2.530019
-2.473911
-2.419194
-2.365975
-2.314323
-2.264334
-2.216174
-2.170084
-2.126354
-2.085288
-2.047171
-2.012253
-1.980748
-1.952832
-1.928628
-1.908188
-1.891483
-1.878398
-1.868745
-1.862273
-1.858687
-1.857650
-1.858795
-1.861733
-1.866065
-1.871396
-1.877340
-1.883529
-1.889618
-1.895292
-1.900266
-1.904300
-1.907200
-1.908825
-1.909077
-1.907894
-1.905246
-1.901129
-1.895574
-1.888662
-1.880533
-1.871381
-1.861434
-1.850926
-1.840085
-1.829148
-1.818368
-1.808013
-1.798352
-1.789640
-1.782118
-1.776017
-1.771570
-1.768998
-1.768500
-1.770229
-1.774286
-1.780716
-1.789519
-1.800640
-1.813966
-1.829330
-1.846509
-1.865218
-1.885357
-1.906591
-1.928431
-1.950650
-1.973221
-1.996207
-2.019632
-2.043430
-2.067478
-2.091665
-2.115946
-2.140296
-2.164687
-2.189098
-2.213523
-2.237971
-2.262459
-2.287006
-2.311624
-2.336308
-2.361041
-2.385787
-2.410495
-2.435087
-2.459459
-2.483501
-2.507112
-2.530204
-2.552705
-2.574556
-2.595711
-2.616137
-2.635808
-2.654707
-2.672826
-2.690159
-2.706708
-2.722480
-2.737487
-2.751745
-2.765280
-2.778125
-2.790322
-2.801924
-2.813000
-2.823625
-2.833890
-2.843885
-2.852265
10.262404
10.262159
10.261518
10.260595
10.259500
10.258320
10.257113
10.255914
10.254745
10.253616
10.252532
10.251494
10.250503
10.249558
10.248657
10.247799
10.246983
10.246208
10.245472
10.244774
10.244111
10.243480
10.242876
10.242291
10.241712
10.241122
10.240492
10.239781
10.238924
10.237825
10.236340
10.234249
10.231221
10.226749
10.220061
10.209955
10.194541
10.170763
10.133495
10.073656
9.973927
9.798168
9.465240
9.075209
3.733647
-3.316346
-3.179412
-3.182140
-3.178697
-3.103799
-2.676170
-2.444326
-2.457607
-2.480974
-2.506955
-2.531284
-2.552916
-2.575317
-2.605550
-2.593176
-2.466114
-2.387048
-2.346952
-2.293322
-2.218351
-2.156117
-2.128775
-2.133774
-2.168417
-2.230881
-2.317529
-2.422797
-2.539066
-2.657224
-2.767597
-2.861091
-2.930822
-2.973472
-2.989258
-2.978142
-2.946583
-2.900542
-2.845275
-2.784919
-2.722453
-2.659816
-2.598155
-2.538054
-2.479738
-2.423229
-2.368451
-2.315321
-2.263836
-2.214121
-2.166437
-2.121133
-2.078573
-2.039085
-2.002952
-1.970421
-1.941704
-1.916962
-1.896278
-1.879627
-1.866884
-1.857831
-1.852192
-1.849639
-1.849807
-1.852289
-1.856655
-1.862465
-1.869286
-1.876695
-1.884297
-1.891718
-1.898615
-1.904681
-1.909653
-1.913328
-1.915563
-1.916266
-1.915381
-1.912878
-1.908748
-1.903011
-1.895739
-1.887087
-1.877283
-1.866598
-1.855290
-1.843585
-1.831712
-1.819934
-1.808536
-1.797804
-1.787998
-1.779351
-1.772091
-1.766456
-1.762684
-1.760990
-1.761543
-1.764463
-1.769813
-1.777609
-1.787814
-1.800341
-1.815055
-1.831790
-1.850279
-1.870297
-1.891578
-1.913839
-1.936870
-1.960559
-1.984852
-2.009698
-2.035017
-2.060703
-2.086656
-2.112795
-2.139055
-2.165378
-2.191713
-2.218016
-2.244258
-2.270412
-2.296458
-2.322373
-2.348128
-2.373689
-2.399014
-2.424052
-2.448741
-2.473013
-2.496796
-2.520026
-2.542649
-2.564620
-2.585906
-2.606478
-2.626319
-2.645413
-2.663751
-2.681325
-2.698130
-2.714165
-2.729431
-2.743932
-2.757679
-2.770689
-2.782990
-2.794617
-2.805623
-2.816072
-2.826039
-2.835614
-2.844886
-2.852795
10.260099
10.259924
10.259453
10.258747
10.257876
10.256902
10.255873
10.254822
10.253772
10.252737
10.251726
10.250743
10.249790
10.248870
10.247981
10.247123
10.246295
10.245496
10.244723
10.243974
10.243245
10.242531
10.241823
10.241109
10.240374
10.239593
10.238730
10.237732
10.236522
10.234986
10.232952
10.230161
10.226224
10.220539
10.212172
10.199631
10.180478
10.150553
10.102330
10.021027
9.873920
9.575537
8.855016
6.370508
-1.607915
-3.316347
-3.179413
-3.182141
-3.178697
-3.103799
-2.908015
-2.663789
-2.605808
-2.596519
-2.594184
-2.594257
-2.600512
-2.619981
-2.660851
-2.668094
-2.488511
-2.370772
-2.370173
-2.313265
-2.184814
-2.084630
-2.052395
-2.059298
-2.099324
-2.172665
-2.275088
-2.400345
-2.539208
-2.680449
-2.812054
-2.922185
-3.001845
-3.047597
-3.060779
-3.042064
-3.000795
-2.944623
-2.879955
-2.811538
-2.742585
-2.674945
-2.609515
-2.546585
-2.486099
-2.427828
-2.371484
-2.316808
-2.263674
-2.212167
-2.162597
-2.115409
-2.071066
-2.029951
-1.992381
-1.958632
-1.928960
-1.903581
-1.882615
-1.866044
-1.853715
-1.845374
-1.840706
-1.839357
-1.840924
-1.844960
-1.850978
-1.858490
-1.867017
-1.876098
-1.885306
-1.894237
-1.902519
-1.909818
-1.915848
-1.920395
-1.923313
-1.924512
-1.923934
-1.921552
-1.917354
-1.911346
-1.903591
-1.894259
-1.883631
-1.872037
-1.859756
-1.846995
-1.833968
-1.820954
-1.808281
-1.796271
-1.785182
-1.775227
-1.766623
-1.759625
-1.754505
-1.751509
-1.750829
-1.752600
-1.756900
-1.763762
-1.773168
-1.785052
-1.799280
-1.815470
-1.833696
-1.853740
-1.875352
-1.898291
-1.922349
-1.947362
-1.973204
-1.999759
-2.026906
-2.054518
-2.082468
-2.110641
-2.138933
-2.167246
-2.195495
-2.223603
-2.251506
-2.279148
-2.306482
-2.333466
-2.360061
-2.386227
-2.411929
-2.437128
-2.461785
-2.485860
-2.509318
-2.532125
-2.554256
-2.575691
-2.596418
-2.616425
-2.635706
-2.654254
-2.672065
-2.689133
-2.705452
-2.721018
-2.735828
-2.749878
-2.763174
-2.775724
-2.787546
-2.798673
-2.809148
-2.819031
-2.828401
-2.837347
-2.845967
-2.853427
10.258118
10.257986
10.257622
10.257064
10.256355
10.255540
10.254655
10.253730
10.252785
10.251836
10.250893
10.249962
10.249048
10.248152
10.247275
10.246418
10.245580
10.244759
10.243952
10.243157
10.242368
10.241578
10.240777
10.239953
10.239086
10.238148
10.237103
10.235895
10.234444
10.232637
10.230303
10.227189
10.222915
10.216892
10.208203
10.195369
10.175937
10.145656
10.096756
10.014010
9.864613
9.566523
8.892208
7.091512
0.531045
-2.369012
-3.015748
-3.190519
-3.267528
-3.310859
-3.323102
-3.327228
-3.293139
-3.209134
-3.086624
-2.952617
-2.840041
-2.768058
-2.728492
-2.658020
-2.502968
-2.406518
-2.373623
-2.296206
-2.126980
-1.988961
-1.962607
-1.973127
-2.016170
-2.101114
-2.220394
-2.367960
-2.532485
-2.700337
-2.857433
-2.988028
-3.079388
-3.128592
-3.137772
-3.110843
-3.058568
-2.990871
-2.915641
-2.838328
-2.762517
-2.689844
-2.620805
-2.555277
-2.492849
-2.433003
-2.375222
-2.319044
-2.264194
-2.210708
-2.158960
-2.109554
-2.063122
-2.020107
-1.980862
-1.945695
-1.914903
-1.888783
-1.867514
-1.851074
-1.839257
-1.831747
-1.828189
-1.828204
-1.831367
-1.837176
-1.845064
-1.854483
-1.864915
-1.875845
-1.886817
-1.897396
-1.907177
-1.915800
-1.922958
-1.928433
-1.932081
-1.933796
-1.933497
-1.931168
-1.926801
-1.920404
-1.912041
-1.901901
-1.890324
-1.877700
-1.864310
-1.850317
-1.835919
-1.821439
-1.807281
-1.793821
-1.781311
-1.769916
-1.759835
-1.751365
-1.744840
-1.740543
-1.738681
-1.739401
-1.742786
-1.748888
-1.757711
-1.768958
-1.782484
-1.798494
-1.816793
-1.837174
-1.859412
-1.883282
-1.908567
-1.935069
-1.962606
-1.991006
-2.020099
-2.049717
-2.079695
-2.109878
-2.140122
-2.170296
-2.200281
-2.229975
-2.259287
-2.288147
-2.316492
-2.344276
-2.371458
-2.398008
-2.423901
-2.449117
-2.473640
-2.497456
-2.520557
-2.542935
-2.564589
-2.585520
-2.605729
-2.625220
-2.643996
-2.662056
-2.679399
-2.696023
-2.711921
-2.727085
-2.741509
-2.755183
-2.768106
-2.780277
-2.791707
-2.802417
-2.812444
-2.821844
-2.830691
-2.839080
-2.847118
-2.854162
10.256383
10.256278
10.255987
10.255532
10.254942
10.254248
10.253479
10.252657
10.251803
10.250930
10.250049
10.249167
10.248288
10.247416
10.246552
10.245697
10.244850
10.244010
10.243173
10.242336
10.241493
10.240637
10.239758
10.238841
10.237868
10.236812
10.235639
10.234298
10.232720
10.230808
10.228421
10.225356
10.221309
10.215823
10.208186
10.197260
10.181164
10.156653
10.117831
10.050983
9.924313
9.654075
8.966289
6.497770
-1.525762
-3.313663
-3.223067
-3.294309
-3.422199
-3.632450
-3.921409
-4.322805
-4.384072
-4.237901
-3.951027
-3.590451
-3.252539
-2.996398
-2.820064
-2.673417
-2.525018
-2.406730
-2.310960
-2.189939
-2.039036
-1.931897
-1.885235
-1.879790
-1.929854
-2.029324
-2.165153
-2.330818
-2.517354
-2.712245
-2.898287
-3.054449
-3.159498
-3.213143
-3.220057
-3.185248
-3.120846
-3.040019
-2.952647
-2.864915
-2.781543
-2.703719
-2.631301
-2.563542
-2.499544
-2.438442
-2.379459
-2.321940
-2.265434
-2.209866
-2.155676
-2.103712
-2.054862
-2.009728
-1.968631
-1.931842
-1.899752
-1.872808
-1.851278
-1.835105
-1.823967
-1.817448
-1.815149
-1.816688
-1.821633
-1.829437
-1.839385
-1.850956
-1.863385
-1.876263
-1.889111
-1.901449
-1.912832
-1.922869
-1.931237
-1.937679
-1.942067
-1.944265
-1.944138
-1.941718
-1.936997
-1.930036
-1.920933
-1.909903
-1.897320
-1.883584
-1.868930
-1.853501
-1.837523
-1.821382
-1.805582
-1.790572
-1.776568
-1.763647
-1.752007
-1.742028
-1.734124
-1.728609
-1.725690
-1.725525
-1.728177
-1.733752
-1.741698
-1.752365
-1.765837
-1.782002
-1.800692
-1.821713
-1.844846
-1.869863
-1.896531
-1.924623
-1.953909
-1.984167
-2.015177
-2.046728
-2.078613
-2.110639
-2.142628
-2.174418
-2.205866
-2.236852
-2.267274
-2.297051
-2.326122
-2.354441
-2.381977
-2.408713
-2.434640
-2.459756
-2.484067
-2.507580
-2.530310
-2.552270
-2.573476
-2.593943
-2.613687
-2.632721
-2.651053
-2.668690
-2.685634
-2.701882
-2.717429
-2.732265
-2.746379
-2.759758
-2.772393
-2.784276
-2.795407
-2.805798
-2.815474
-2.824482
-2.832894
-2.840805
-2.848333
-2.855003
10.254843
10.254756
10.254515
10.254134
10.253632
10.253032
10.252354
10.251619
10.250841
10.250034
10.249207
10.248368
10.247523
10.246673
10.245822
10.244969
10.244115
10.243258
10.242395
10.241522
10.240633
10.239722
10.238777
10.237787
10.236733
10.235594
10.234341
10.232935
10.231326
10.229447
10.227209
10.224488
10.221115
10.216845
10.211316
10.203970
10.193899
10.179544
10.157332
10.120244
10.052696
9.916952
9.620152
9.225290
3.849764
-3.313662
-3.223067
-3.294309
-3.422198
-3.632450
-4.588301
-5.255194
-5.145603
-5.114971
-4.794390
-4.242627
-3.671278
-3.224019
-2.928967
-2.728658
-2.567524
-2.421942
-2.279844
-2.130535
-1.986249
-1.881617
-1.829473
-1.828214
-1.878632
-1.977558
-2.120039
-2.297405
-2.499862
-2.715785
-2.926799
-3.107151
-3.234813
-3.299777
-3.308763
-3.267920
-3.191310
-3.094870
-2.992404
-2.892991
-2.801107
-2.717611
-2.641594
-2.571577
-2.506093
-2.443857
-2.383789
-2.325003
-2.266865
-2.209184
-2.152441
-2.097745
-2.046319
-1.998929
-1.955829
-1.917226
-1.883664
-1.855860
-1.834220
-1.818569
-1.808351
-1.803002
-1.802106
-1.805315
-1.812199
-1.822243
-1.834192
-1.847590
-1.862201
-1.877333
-1.892365
-1.906735
-1.919942
-1.931557
-1.941225
-1.948668
-1.953651
-1.956090
-1.956010
-1.953388
-1.948252
-1.940574
-1.930588
-1.918531
-1.904730
-1.889565
-1.873339
-1.856255
-1.838586
-1.820751
-1.803259
-1.786709
-1.771184
-1.756665
-1.743419
-1.731957
-1.722767
-1.716169
-1.712346
-1.711517
-1.713489
-1.718026
-1.725698
-1.736414
-1.750137
-1.766771
-1.786152
-1.808083
-1.832333
-1.858658
-1.886810
-1.916527
-1.947540
-1.979579
-2.012381
-2.045691
-2.079268
-2.112886
-2.146340
-2.179445
-2.212046
-2.244011
-2.275234
-2.305637
-2.335163
-2.363776
-2.391459
-2.418209
-2.444033
-2.468950
-2.492982
-2.516158
-2.538506
-2.560057
-2.580840
-2.600883
-2.620210
-2.638841
-2.656792
-2.674070
-2.690682
-2.706624
-2.721892
-2.736474
-2.750356
-2.763523
-2.775958
-2.787647
-2.798579
-2.808756
-2.818189
-2.826913
-2.834990
-2.842512
-2.849607
-2.855954
10.253462
10.253389
10.253184
10.252857
10.252421
10.251893
10.251288
10.250622
10.249908
10.249157
10.248378
10.247578
10.246762
10.245933
10.245093
10.244244
10.243384
10.242513
10.241627
10.240724
10.239797
10.238839
10.237842
10.236795
10.235683
10.234489
10.233193
10.231772
10.230198
10.228441
10.226471
10.224263
10.221801
10.219088
10.216168
10.213138
10.210161
10.207435
10.205109
10.203034
10.199860
10.192376
10.178627
10.178936
10.178937
0.000000
0.000000
0.000000
0.000000
0.000000
-5.078460
-5.078461
-5.263889
-5.566090
-5.361274
-4.684815
-3.933331
-3.348015
-2.997312
-2.785763
-2.629026
-2.471805
-2.304215
-2.134092
-1.980292
-1.866146
-1.805242
-1.801311
-1.852527
-1.952803
-2.095562
-2.274981
-2.483998
-2.711663
-2.939344
-3.140858
-3.290832
-3.373307
-3.387014
-3.347571
-3.261370
-3.150828
-3.034106
-2.922993
-2.822699
-2.733698
-2.654190
-2.581835
-2.514526
-2.450593
-2.388767
-2.328088
-2.267863
-2.207817
-2.148415
-2.090934
-2.036901
-1.987230
-1.942038
-1.901433
-1.866221
-1.837607
-1.816207
-1.801553
-1.792628
-1.788663
-1.789313
-1.794323
-1.803275
-1.815053
-1.829215
-1.845152
-1.862250
-1.879811
-1.897158
-1.913669
-1.928786
-1.942035
-1.953031
-1.961477
-1.967164
-1.969975
-1.969870
-1.966805
-1.960852
-1.952286
-1.941267
-1.927997
-1.912734
-1.895893
-1.877825
-1.858854
-1.839348
-1.819761
-1.800589
-1.782285
-1.765061
-1.749009
-1.734380
-1.721611
-1.711245
-1.703688
-1.699058
-1.697218
-1.698363
-1.702829
-1.710616
-1.721640
-1.735892
-1.753286
-1.773619
-1.796688
-1.822222
-1.849961
-1.879640
-1.910966
-1.943626
-1.977310
-2.011718
-2.046561
-2.081567
-2.116487
-2.151099
-2.185206
-2.218644
-2.251280
-2.283012
-2.313769
-2.343504
-2.372195
-2.399839
-2.426449
-2.452050
-2.476676
-2.500367
-2.523165
-2.545115
-2.566258
-2.586636
-2.606284
-2.625233
-2.643510
-2.661133
-2.678113
-2.694458
-2.710164
-2.725224
-2.739628
-2.753359
-2.766396
-2.778719
-2.790308
-2.801144
-2.811216
-2.820524
-2.829085
-2.836944
-2.844185
-2.850937
-2.857019
10.252217
10.252153
10.251975
10.251688
10.251303
10.250831
10.250284
10.249674
10.249013
10.248309
10.247571
10.246804
10.246014
10.245203
10.244375
10.243529
10.242665
10.241782
10.240879
10.239950
10.238991
10.237996
10.236958
10.235867
10.234713
10.233484
10.232170
10.230759
10.229248
10.227643
10.225969
10.224289
10.222730
10.221521
10.221068
10.222046
10.225536
10.233175
10.247768
10.273453
10.314993
10.377614
10.463236
10.562522
10.562522
0.000000
0.000000
0.000000
0.000000
0.000000
-4.778206
-4.778206
-5.007833
-5.386032
-5.393912
-4.786976
-3.982367
-3.340257
-3.011692
-2.823301
-2.694926
-2.534093
-2.347426
-2.157079
-1.986859
-1.858562
-1.786751
-1.776930
-1.826809
-1.928876
-2.074156
-2.255028
-2.465018
-2.694947
-2.928209
-3.140978
-3.308328
-3.409713
-3.432580
-3.400758
-3.313723
-3.195896
-3.069550
-2.949768
-2.843369
-2.750801
-2.669381
-2.595814
-2.527334
-2.461880
-2.397964
-2.334541
-2.270992
-2.207267
-2.144139
-2.083210
-2.026226
-1.974056
-1.926555
-1.883730
-1.846818
-1.817722
-1.797260
-1.784257
-1.776898
-1.774295
-1.776467
-1.783404
-1.794523
-1.808727
-1.825514
-1.844179
-1.863979
-1.884144
-1.903935
-1.922667
-1.939733
-1.954621
-1.966922
-1.976331
-1.982636
-1.985715
-1.985521
-1.982065
-1.975447
-1.965853
-1.953443
-1.938544
-1.921565
-1.902832
-1.882739
-1.861701
-1.840167
-1.818641
-1.797605
-1.777479
-1.758542
-1.740999
-1.725123
-1.711289
-1.699871
-1.691171
-1.685443
-1.683134
-1.684206
-1.688744
-1.696804
-1.708352
-1.723370
-1.741808
-1.763297
-1.787702
-1.814631
-1.843830
-1.875034
-1.907919
-1.942111
-1.977270
-2.013070
-2.049191
-2.085346
-2.121270
-2.156732
-2.191532
-2.225506
-2.258525
-2.290496
-2.321359
-2.351080
-2.379653
-2.407089
-2.433419
-2.458683
-2.482931
-2.506215
-2.528593
-2.550119
-2.570846
-2.590823
-2.610094
-2.628694
-2.646654
-2.663995
-2.680732
-2.696869
-2.712404
-2.727330
-2.741632
-2.755292
-2.768285
-2.780586
-2.792170
-2.803011
-2.813090
-2.822395
-2.830925
-2.838704
-2.845793
-2.852312
-2.858201
10.251089
10.251033
10.250874
10.250618
10.250271
10.249843
10.249342
10.248778
10.248160
10.247496
10.246792
10.246054
10.245287
10.244493
10.243674
10.242831
10.241965
10.241073
10.240154
10.239205
10.238221
10.237196
10.236126
10.235001
10.233816
10.232563
10.231239
10.229844
10.228390
10.226911
10.225470
10.224194
10.223306
10.223191
10.224495
10.228277
10.236217
10.250872
10.275864
10.316600
10.379705
10.468971
10.578381
10.680582
10.680582
0.000000
0.000000
0.000000
0.000000
0.000000
-4.511875
-4.511876
-4.734617
-5.005890
-5.083544
-4.747839
-4.089762
-3.397530
-3.060507
-2.844276
-2.762919
-2.579437
-2.364149
-2.149518
-1.959987
-1.816856
-1.735324
-1.721419
-1.772310
-1.879027
-2.030343
-2.216046
-2.427750
-2.656323
-2.887680
-3.101619
-3.275538
-3.389821
-3.431686
-3.400186
-3.326708
-3.213844
-3.087136
-2.965160
-2.857253
-2.764722
-2.684486
-2.612432
-2.545060
-2.479747
-2.414608
-2.348458
-2.280908
-2.212444
-2.144401
-2.078678
-2.017076
-1.960593
-1.909465
-1.864200
-1.826426
-1.798148
-1.779743
-1.768659
-1.762335
-1.760399
-1.763795
-1.772899
-1.786526
-1.803346
-1.823073
-1.844764
-1.867536
-1.890520
-1.912902
-1.933944
-1.953005
-1.969547
-1.983140
-1.993466
-2.000308
-2.003540
-2.003130
-1.999129
-1.991668
-1.980938
-1.967159
-1.950634
-1.931741
-1.910880
-1.888501
-1.865110
-1.841262
-1.817503
-1.794356
-1.772240
-1.751470
-1.732305
-1.715039
-1.700043
-1.687737
-1.678454
-1.672464
-1.670002
-1.671178
-1.676094
-1.684789
-1.697227
-1.713306
-1.732836
-1.755553
-1.781185
-1.809528
-1.840178
-1.872870
-1.907257
-1.942842
-1.979285
-2.016253
-2.053395
-2.090418
-2.127055
-2.163072
-2.198274
-2.232502
-2.265637
-2.297599
-2.328341
-2.357845
-2.386120
-2.413193
-2.439111
-2.463930
-2.487711
-2.510522
-2.532429
-2.553499
-2.573793
-2.593366
-2.612267
-2.630537
-2.648209
-2.665306
-2.681843
-2.697827
-2.713251
-2.728107
-2.742381
-2.756049
-2.769083
-2.781452
-2.793127
-2.804076
-2.814273
-2.823697
-2.832334
-2.840186
-2.847284
-2.853714
-2.859505
10.250065
10.250014
10.249871
10.249638
10.249321
10.248927
10.248463
10.247936
10.247353
10.246722
10.246047
10.245334
10.244586
10.243806
10.242997
10.242158
10.241290
10.240391
10.239460
10.238495
10.237490
10.236442
10.235345
10.234194
10.232984
10.231711
10.230375
10.228983
10.227555
10.226135
10.224804
10.223710
10.223109
10.223435
10.225409
10.230205
10.239691
10.256735
10.285494
10.331384
10.399746
10.492597
10.601234
10.697021
10.697021
0.000000
0.000000
0.000000
0.000000
0.000000
-4.392694
-4.392694
-4.597131
-4.858330
-5.028337
-4.944616
-4.593182
-4.075737
-3.593663
-3.145245
-2.840691
-2.579419
-2.319762
-2.076966
-1.867028
-1.709954
-1.621978
-1.609007
-1.666850
-1.784247
-1.947136
-2.142351
-2.359029
-2.587096
-2.814097
-3.023457
-3.196198
-3.315132
-3.369282
-3.355020
-3.289604
-3.193516
-3.077608
-2.962284
-2.859228
-2.771349
-2.695992
-2.628730
-2.565488
-2.503022
-2.438885
-2.371571
-2.300767
-2.227411
-2.153460
-2.081395
-2.013572
-1.951700
-1.896832
-1.849869
-1.811946
-1.784029
-1.766389
-1.755438
-1.749167
-1.748100
-1.753146
-1.764023
-1.779719
-1.799619
-1.822449
-1.847309
-1.873238
-1.899235
-1.924385
-1.947885
-1.969037
-1.987252
-2.002072
-2.013170
-2.020344
-2.023512
-2.022691
-2.017984
-2.009546
-1.997565
-1.982264
-1.963942
-1.942980
-1.919829
-1.895014
-1.869145
-1.842867
-1.816792
-1.791457
-1.767305
-1.744697
-1.723956
-1.705415
-1.689445
-1.676429
-1.666701
-1.660522
-1.658096
-1.659563
-1.665023
-1.674509
-1.687966