# vtk DataFile Version 3.0
Scalar Field
ASCII
DATASET RECTILINEAR_GRID
DIMENSIONS 200 50 1
X_COORDINATES 200 double
0.050000 0.150000 0.250000 0.350000 0.450000 0.550000 0.650000 0.750000 0.850000 0.950000 1.050000 1.150000 1.250000 1.350000 1.450000 1.550000 1.650000 1.750000 1.850000 1.950000 2.050000 2.150000 2.250000 2.350000 2.450000 2.550000 2.650000 2.750000 2.850000 2.950000 3.050000 3.150000 3.250000 3.350000 3.450000 3.550000 3.650000 3.750000 3.850000 3.950000 4.050000 4.150000 4.250000 4.350000 4.450000 4.550000 4.650000 4.750000 4.850000 4.950000 5.050000 5.150000 5.250000 5.350000 5.450000 5.550000 5.650000 5.750000 5.850000 5.950000 6.050000 6.150000 6.250000 6.350000 6.450000 6.550000 6.650000 6.750000 6.850000 6.950000 7.050000 7.150000 7.250000 7.350000 7.450000 7.550000 7.650000 7.750000 7.850000 7.950000 8.050000 8.150000 8.250000 8.350000 8.450000 8.550000 8.650000 8.750000 8.850000 8.950000 9.050000 9.150000 9.250000 9.350000 9.450000 9.550000 9.650000 9.750000 9.850000 9.950000 10.050000 10.150000 10.250000 10.350000 10.450000 10.550000 10.650000 10.750000 10.850000 10.950000 11.050000 11.150000 11.250000 11.350000 11.450000 11.550000 11.650000 11.750000 11.850000 11.950000 12.050000 12.150000 12.250000 12.350000 12.450000 12.550000 12.650000 12.750000 12.850000 12.950000 13.050000 13.150000 13.250000 13.350000 13.450000 13.550000 13.650000 13.750000 13.850000 13.950000 14.050000 14.150000 14.250000 14.350000 14.450000 14.550000 14.650000 14.750000 14.850000 14.950000 15.050000 15.150000 15.250000 15.350000 15.450000 15.550000 15.650000 15.750000 15.850000 15.950000 16.050000 16.150000 16.250000 16.350000 16.450000 16.550000 16.650000 16.750000 16.850000 16.950000 17.050000 17.150000 17.250000 17.350000 17.450000 17.550000 17.650000 17.750000 17.850000 17.950000 18.050000 18.150000 18.250000 18.350000 18.450000 18.550000 18.650000 18.750000 18.850000 18.950000 19.050000 19.150000 19.250000 19.350000 19.450000 19.550000 19.650000 19.750000 19.850000 19.950000 
Y_COORDINATES 50 double
0.050000 0.150000 0.250000 0.350000 0.450000 0.550000 0.650000 0.750000 0.850000 0.950000 1.050000 1.150000 1.250000 1.350000 1.450000 1.550000 1.650000 1.750000 1.850000 1.950000 2.050000 2.150000 2.250000 2.350000 2.450000 2.550000 2.650000 2.750000 2.850000 2.950000 3.050000 3.150000 3.250000 3.350000 3.450000 3.550000 3.650000 3.750000 3.850000 3.950000 4.050000 4.150000 4.250000 4.350000 4.450000 4.550000 4.650000 4.750000 4.850000 4.950000 
Z_COORDINATES 1 double
0.0
POINT_DATA 10000
SCALARS Skalarfeld double 1
LOOKUP_TABLE default
9.973926
9.961515
9.954480
9.949850
9.946483
9.943876
9.941776
9.940043
9.938594
9.937374
9.936348
9.935492
9.934790
9.934232
9.933809
9.933521
9.933364
9.933343
9.933461
9.933726
9.934146
9.934735
9.935507
9.936481
9.937680
9.939131
9.940870
9.942938
9.945388
9.948284
9.951709
9.955763
9.960572
9.966282
9.973062
9.981077
9.990454
10.001188
10.012987
10.025040
10.035742
10.041193
10.042517
10.060061
10.060061
0.000000
0.000000
0.000000
0.000000
0.000000
-2.887905
-2.887905
-2.893325
-2.900943
-2.905950
-2.908707
-2.910283
-2.911942
-2.915065
-2.921074
-2.931190
-2.945919
-2.965521
-2.989710
-3.017550
-3.047361
-3.076856
-3.102772
-3.122309
-3.133271
-3.134510
-3.126079
-3.109044
-3.084728
-3.055364
-3.023877
-2.993094
-2.965448
-2.943068
-2.927811
-2.921151
-2.924081
-2.937050
-2.959935
-2.992062
-3.032274
-3.079020
-3.130482
-3.184702
-3.239705
-3.293612
-3.344734
-3.391637
-3.433185
-3.468549
-3.497207
-3.518910
-3.533650
-3.541604
-3.543090
-3.538510
-3.528296
-3.512867
-3.492604
-3.467825
-3.438867
-3.406150
-3.369788
-3.329892
-3.286581
-3.239999
-3.190338
-3.137854
-3.082869
-3.025779
-2.967046
-2.907181
-2.846733
-2.786257
-2.726296
-2.667359
-2.609910
-2.554357
-2.501048
-2.450244
-2.402119
-2.356754
-2.314154
-2.274263
-2.236968
-2.202092
-2.169399
-2.138628
-2.109534
-2.081886
-2.055437
-2.029927
-2.005143
-1.981051
-1.957661
-1.934959
-1.912907
-1.891690
-1.871642
-1.853030
-1.835890
-1.820665
-1.807911
-1.797271
-1.789484
-1.785003
-1.783868
-1.786131
-1.791785
-1.800757
-1.812909
-1.828049
-1.845937
-1.866293
-1.888804
-1.913135
-1.938933
-1.965843
-1.993510
-2.021593
-2.049767
-2.077734
-2.105229
-2.132022
-2.157927
-2.182802
-2.206552
-2.229131
-2.250538
-2.270818
-2.290058
-2.308379
-2.325931
-2.342887
-2.359434
-2.375770
-2.392094
-2.408603
-2.425485
-2.442914
-2.461040
-2.479986
-2.499840
-2.520659
-2.542468
-2.565268
-2.589043
-2.613770
-2.639343
-2.665725
-2.692843
-2.720601
-2.748908
-2.777707
-2.807822
9.959827
9.956168
9.952037
9.948514
9.945635
9.943272
9.941310
9.939662
9.938267
9.937085
9.936085
9.935248
9.934559
9.934009
9.933592
9.933304
9.933146
9.933120
9.933230
9.933482
9.933886
9.934453
9.935197
9.936136
9.937290
9.938684
9.940350
9.942323
9.944650
9.947387
9.950603
9.954383
9.958831
9.964071
9.970242
9.977490
9.985934
9.995606
10.006340
10.017572
10.027956
10.035625
10.046945
10.071876
10.071875
0.000000
0.000000
0.000000
0.000000
0.000000
-2.891984
-2.891984
-2.897512
-2.904500
-2.908026
-2.909765
-2.910243
-2.910605
-2.912406
-2.917096
-2.926321
-2.940482
-2.960295
-2.985774
-3.015941
-3.048767
-3.081333
-3.110135
-3.131843
-3.143872
-3.144900
-3.135073
-3.115657
-3.088525
-3.056110
-3.021752
-2.988646
-2.959356
-2.936024
-2.920481
-2.914151
-2.917944
-2.932203
-2.956688
-2.990610
-3.032695
-3.081291
-3.134490
-3.190260
-3.246572
-3.301512
-3.353374
-3.400725
-3.442445
-3.477736
-3.506114
-3.527378
-3.541565
-3.548904
-3.549760
-3.544580
-3.533835
-3.517961
-3.497361
-3.472367
-3.443424
-3.410664
-3.374295
-3.334426
-3.291151
-3.244589
-3.194915
-3.142371
-3.087273
-3.030017
-2.971066
-2.910946
-2.850218
-2.789455
-2.729215
-2.670014
-2.612322
-2.556555
-2.503075
-2.452157
-2.403979
-2.358616
-2.316061
-2.276260
-2.239110
-2.204432
-2.171972
-2.141432
-2.112560
-2.085152
-2.058964
-2.033703
-2.009055
-1.985038
-1.961697
-1.939040
-1.916899
-1.895482
-1.875227
-1.856507
-1.838890
-1.823082
-1.809729
-1.798820
-1.790783
-1.785951
-1.784470
-1.786420
-1.791815
-1.800590
-1.812615
-1.827695
-1.845586
-1.866001
-1.888618
-1.913094
-1.939066
-1.966168
-1.994038
-2.022325
-2.050695
-2.078844
-2.106500
-2.133427
-2.159434
-2.184378
-2.208160
-2.230733
-2.252099
-2.272303
-2.291435
-2.309619
-2.327010
-2.343787
-2.360143
-2.376282
-2.392408
-2.408727
-2.425431
-2.442699
-2.460687
-2.479519
-2.499286
-2.520042
-2.541811
-2.564588
-2.588340
-2.613016
-2.638614
-2.665059
-2.692263
-2.720101
-2.748440
-2.777030
-2.806638
9.952472
9.951124
9.948799
9.946355
9.944100
9.942109
9.940377
9.938878
9.937584
9.936470
9.935517
9.934712
9.934043
9.933502
9.933087
9.932794
9.932623
9.932576
9.932656
9.932870
9.933224
9.933728
9.934392
9.935229
9.936255
9.937487
9.938944
9.940648
9.942625
9.944903
9.947510
9.950479
9.953841
9.957625
9.961850
9.966524
9.971630
9.977137
9.983038
9.989545
9.997721
10.011725
10.042922
10.099147
10.099146
0.000000
0.000000
0.000000
0.000000
0.000000
-2.892958
-2.892959
-2.900512
-2.908056
-2.909399
-2.910451
-2.910081
-2.909671
-2.909707
-2.910857
-2.915953
-2.928528
-2.949425
-2.978468
-3.014460
-3.054683
-3.095031
-3.130691
-3.157112
-3.170905
-3.170423
-3.155930
-3.129429
-3.094228
-3.054221
-3.013368
-2.975237
-2.942701
-2.917976
-2.902745
-2.898168
-2.904840
-2.922779
-2.951429
-2.989711
-3.036102
-3.088744
-3.145569
-3.204428
-3.263219
-3.319991
-3.373038
-3.420957
-3.462684
-3.497502
-3.525020
-3.545138
-3.557994
-3.563915
-3.563361
-3.556874
-3.545011
-3.527884
-3.506151
-3.480534
-3.451241
-3.418390
-3.382060
-3.342290
-3.299115
-3.252608
-3.202910
-3.150243
-3.094918
-3.037327
-2.977946
-2.917323
-2.856054
-2.794742
-2.733973
-2.674283
-2.616146
-2.559993
-2.506214
-2.455110
-2.406864
-2.361538
-2.319092
-2.279480
-2.242623
-2.208335
-2.176335
-2.146238
-2.117794
-2.090836
-2.065117
-2.040313
-2.015891
-1.992048
-1.968837
-1.946329
-1.923888
-1.902003
-1.881263
-1.861784
-1.843596
-1.827202
-1.813083
-1.801507
-1.792832
-1.787365
-1.785298
-1.786745
-1.791735
-1.800217
-1.812064
-1.827081
-1.845017
-1.865572
-1.888410
-1.913171
-1.939476
-1.966943
-1.995193
-2.023857
-2.052590
-2.081073
-2.109022
-2.136192
-2.162386
-2.187452
-2.211290
-2.233851
-2.255137
-2.275198
-2.294126
-2.312055
-2.329146
-2.345588
-2.361585
-2.377350
-2.393102
-2.409055
-2.425415
-2.442370
-2.460085
-2.478690
-2.498279
-2.518908
-2.540597
-2.563338
-2.587101
-2.611842
-2.637520
-2.664059
-2.691386
-2.719423
-2.747948
-2.776561
-2.806070
9.947691
9.947060
9.945684
9.944010
9.942301
9.940684
9.939207
9.937884
9.936712
9.935683
9.934790
9.934023
9.933378
9.932848
9.932432
9.932129
9.931937
9.931858
9.931896
9.932054
9.932336
9.932750
9.933301
9.933996
9.934843
9.935848
9.937015
9.938346
9.939838
9.941475
9.943232
9.945056
9.946864
9.948522
9.949826
9.950478
9.950066
9.948081
9.944059
9.938109
9.932529
9.935801
9.968050
10.050920
10.050920
0.000000
0.000000
0.000000
0.000000
0.000000
-2.885210
-2.885211
-2.895078
-2.903257
-2.908180
-2.910580
-2.912852
-2.914298
-2.911919
-2.903069
-2.896342
-2.905707
-2.929492
-2.965676
-3.012791
-3.067049
-3.121930
-3.169846
-3.204089
-3.220152
-3.216024
-3.192371
-3.152701
-3.102908
-3.049352
-2.997420
-2.951307
-2.914007
-2.887558
-2.873252
-2.871735
-2.883054
-2.906690
-2.941598
-2.986279
-3.038866
-3.097234
-3.159116
-3.222229
-3.284388
-3.343612
-3.398205
-3.446818
-3.488475
-3.522572
-3.548856
-3.567369
-3.578390
-3.582378
-3.579924
-3.571702
-3.557713
-3.538947
-3.516301
-3.490132
-3.460614
-3.427796
-3.391657
-3.352139
-3.309195
-3.262834
-3.213155
-3.160362
-3.104758
-3.046737
-2.986786
-2.925496
-2.863508
-2.801471
-2.740016
-2.679704
-2.621006
-2.564372
-2.510238
-2.458936
-2.410658
-2.365444
-2.323191
-2.283883
-2.247473
-2.213760
-2.182444
-2.152946
-2.125130
-2.098836
-2.073798
-2.049764
-2.025429
-2.001851
-1.978752
-1.955996
-1.933372
-1.911186
-1.889818
-1.869506
-1.850496
-1.833218
-1.818123
-1.805593
-1.796002
-1.789668
-1.786823
-1.787609
-1.792075
-1.800184
-1.811813
-1.826762
-1.844769
-1.865520
-1.888659
-1.913804
-1.940555
-1.968506
-1.997257
-2.026419
-2.055626
-2.084544
-2.112873
-2.140356
-2.166783
-2.191996
-2.215891
-2.238415
-2.259573
-2.279417
-2.298049
-2.315609
-2.332271
-2.348237
-2.363723
-2.378960
-2.394179
-2.409611
-2.425477
-2.441977
-2.459290
-2.477555
-2.496872
-2.517299
-2.538856
-2.561532
-2.585295
-2.610101
-2.635902
-2.662642
-2.690255
-2.718649
-2.747674
-2.776967
-2.807753
9.944099
9.943744
9.942870
9.941701
9.940413
9.939121
9.937886
9.936740
9.935698
9.934764
9.933937
9.933215
9.932598
9.932082
9.931666
9.931351
9.931136
9.931021
9.931010
9.931104
9.931306
9.931618
9.932043
9.932580
9.933231
9.933989
9.934844
9.935777
9.936754
9.937718
9.938583
9.939209
9.939383
9.938780
9.936911
9.933041
9.926079
9.914436
9.895868
9.867473
9.826420
9.773345
9.723287
9.727408
9.727408
0.000000
0.000000
0.000000
0.000000
0.000000
-2.866051
-2.866052
-2.880334
-2.893996
-2.903768
-2.912565
-2.922882
-2.932863
-2.930626
-2.896779
-2.857773
-2.864923
-2.896037
-2.943722
-3.008661
-3.086180
-3.164942
-3.232215
-3.278087
-3.297142
-3.286971
-3.248503
-3.187643
-3.115356
-3.041446
-2.973737
-2.916911
-2.873568
-2.845156
-2.832256
-2.834762
-2.851983
-2.882719
-2.925337
-2.977849
-3.038001
-3.103369
-3.171466
-3.239851
-3.306240
-3.368601
-3.425239
-3.474854
-3.516563
-3.549904
-3.574790
-3.591442
-3.600314
-3.602017
-3.597309
-3.586511
-3.570197
-3.550017
-3.526481
-3.499885
-3.470326
-3.437751
-3.402019
-3.362958
-3.320420
-3.274330
-3.224743
-3.171847
-3.115948
-3.057444
-2.996830
-2.934755
-2.871930
-2.809050
-2.746809
-2.685812
-2.626496
-2.569345
-2.514859
-2.463403
-2.415173
-2.370163
-2.328170
-2.289298
-2.253505
-2.220565
-2.190264
-2.161329
-2.134295
-2.108827
-2.084521
-2.060927
-2.037444
-2.014281
-1.991321
-1.968449
-1.945614
-1.923013
-1.900952
-1.879738
-1.859725
-1.841354
-1.825099
-1.811406
-1.800692
-1.793312
-1.789536
-1.789537
-1.793388
-1.801063
-1.812440
-1.827316
-1.845412
-1.866396
-1.889888
-1.915479
-1.942744
-1.971251
-2.000573
-2.030299
-2.060042
-2.089445
-2.118192
-2.146011
-2.172681
-2.198034
-2.221959
-2.244403
-2.265370
-2.284920
-2.303161
-2.320244
-2.336359
-2.351720
-2.366564
-2.381137
-2.395690
-2.410468
-2.425710
-2.441633
-2.458426
-2.476242
-2.495188
-2.515328
-2.536683
-2.559244
-2.582977
-2.607834
-2.633769
-2.660758
-2.688749
-2.717732
-2.747548
-2.778168
-2.811599
9.941172
9.940945
9.940354
9.939512
9.938533
9.937501
9.936477
9.935496
9.934579
9.933739
9.932980
9.932307
9.931719
9.931218
9.930804
9.930476
9.930237
9.930085
9.930023
9.930050
9.930168
9.930376
9.930672
9.931052
9.931508
9.932026
9.932583
9.933142
9.933647
9.934007
9.934085
9.933673
9.932448
9.929919
9.925326
9.917489
9.904542
9.883456
9.849141
9.792550
9.696374
9.524381
9.194832
8.811126
3.459932
-3.623632
-3.468376
-3.457691
-3.448673
-3.384289
-3.038281
-2.850900
-2.864287
-2.882755
-2.899731
-2.917775
-2.943305
-2.978505
-2.997759
-2.901980
-2.773838
-2.798193
-2.846682
-2.907629
-2.997492
-3.111740
-3.227960
-3.323847
-3.385392
-3.408565
-3.390207
-3.329908
-3.237605
-3.133156
-3.032171
-2.943270
-2.872681
-2.822555
-2.792165
-2.781085
-2.788279
-2.812203
-2.850919
-2.902175
-2.963485
-3.032202
-3.105589
-3.180912
-3.255536
-3.327029
-3.393264
-3.452512
-3.503494
-3.545423
-3.577989
-3.601311
-3.615836
-3.622227
-3.621267
-3.613775
-3.599599
-3.581282
-3.559698
-3.535375
-3.508547
-3.479198
-3.447140
-3.412089
-3.373739
-3.331822
-3.286157
-3.236756
-3.183804
-3.127620
-3.068619
-3.007285
-2.944362
-2.880642
-2.816865
-2.753807
-2.692130
-2.632167
-2.574517
-2.519746
-2.468237
-2.420227
-2.375561
-2.333769
-2.295463
-2.260375
-2.228245
-2.198664
-2.170996
-2.145070
-2.120601
-2.097174
-2.074338
-2.051678
-2.029070
-2.006384
-1.983526
-1.960498
-1.937459
-1.914690
-1.892538
-1.871424
-1.851832
-1.834281
-1.819278
-1.807295
-1.798736
-1.793914
-1.793039
-1.796205
-1.803399
-1.814499
-1.829291
-1.847481
-1.868712
-1.892578
-1.918643
-1.946450
-1.975539
-2.005458
-2.035769
-2.066061
-2.095958
-2.125125
-2.153273
-2.180168
-2.205632
-2.229548
-2.251860
-2.272574
-2.291754
-2.309518
-2.326030
-2.341495
-2.356146
-2.370238
-2.384036
-2.397811
-2.411827
-2.426338
-2.441576
-2.457743
-2.475003
-2.493472
-2.513221
-2.534281
-2.556647
-2.580286
-2.605149
-2.631179
-2.658427
-2.686801
-2.716351
-2.747239
-2.779596
-2.816518
9.938668
9.938510
9.938088
9.937462
9.936705
9.935876
9.935026
9.934188
9.933386
9.932633
9.931941
9.931314
9.930756
9.930270
9.929856
9.929517
9.929253
9.929063
9.928949
9.928910
9.928944
9.929049
9.929221
9.929450
9.929725
9.930025
9.930319
9.930560
9.930677
9.930562
9.930051
9.928897
9.926721
9.922937
9.916627
9.906325
9.889625
9.862403
9.817192
9.739276
9.596015
9.302074
8.587182
6.111732
-1.891262
-3.623632
-3.468376
-3.457691
-3.448673
-3.384289
-3.225664
-3.024855
-2.975865
-2.966021
-2.961945
-2.964015
-2.980031
-3.011602
-3.019319
-2.866305
-2.620562
-2.720871
-2.791364
-2.849005
-2.970205
-3.144110
-3.318563
-3.454328
-3.533250
-3.562557
-3.536046
-3.445111
-3.305227
-3.156695
-3.022276
-2.909563
-2.821592
-2.762802
-2.730695
-2.721796
-2.734072
-2.765110
-2.812242
-2.872635
-2.943340
-3.021332
-3.103557
-3.186996
-3.268757
-3.346189
-3.417005
-3.479378
-3.532022
-3.574232
-3.605874
-3.627319
-3.639304
-3.642762
-3.638728
-3.627049
-3.609968
-3.589541
-3.566609
-3.541678
-3.514885
-3.486066
-3.454862
-3.420820
-3.383478
-3.342435
-3.297380
-3.248290
-3.195356
-3.138920
-3.079442
-3.017353
-2.953567
-2.888954
-2.824282
-2.760467
-2.698291
-2.637599
-2.579486
-2.524528
-2.472988
-2.425042
-2.380653
-2.339654
-2.302141
-2.267947
-2.236779
-2.208224
-2.181798
-2.157128
-2.133835
-2.111480
-2.089617
-2.067855
-2.045939
-2.023686
-2.000994
-1.977870
-1.954459
-1.931035
-1.907977
-1.885750
-1.864895
-1.845985
-1.829594
-1.816257
-1.806435
-1.800492
-1.798675
-1.801104
-1.807775
-1.818565
-1.833249
-1.851512
-1.872972
-1.897193
-1.923710
-1.952037
-1.981685
-2.012173
-2.043041
-2.073854
-2.104215
-2.133770
-2.162214
-2.189300
-2.214838
-2.238704
-2.260839
-2.281249
-2.300003
-2.317227
-2.333100
-2.347840
-2.361701
-2.374957
-2.387896
-2.400806
-2.413971
-2.427661
-2.442120
-2.457563
-2.474160
-2.492038
-2.511277
-2.531920
-2.553980
-2.577430
-2.602223
-2.628180
-2.655384
-2.684063
-2.714297
-2.746290
-2.780381
-2.820673
9.936457
9.936341
9.936025
9.935546
9.934947
9.934274
9.933564
9.932846
9.932143
9.931469
9.930837
9.930253
9.929723
9.929250
9.928837
9.928486
9.928196
9.927969
9.927803
9.927699
9.927652
9.927660
9.927715
9.927807
9.927920
9.928032
9.928110
9.928102
9.927936
9.927504
9.926644
9.925113
9.922542
9.918358
9.911663
9.901005
9.883962
9.856329
9.810399
9.731037
9.585514
9.291998
8.623439
6.831979
0.250792
-2.663093
-3.298771
-3.456463
-3.517285
-3.546811
-3.549424
-3.539959
-3.498604
-3.438254
-3.376398
-3.323464
-3.277470
-3.220988
-3.110147
-2.896417
-2.709002
-2.715135
-2.718341
-2.752753
-2.919323
-3.192019
-3.451710
-3.637028
-3.723789
-3.763530
-3.734607
-3.597863
-3.388805
-3.184070
-3.011844
-2.873501
-2.768518
-2.697532
-2.663645
-2.657094
-2.674511
-2.712649
-2.768189
-2.837800
-2.918143
-3.005852
-3.097543
-3.189863
-3.279577
-3.363713
-3.439733
-3.505646
-3.560108
-3.602484
-3.632839
-3.651868
-3.660670
-3.660470
-3.652219
-3.636069
-3.616088
-3.593586
-3.569450
-3.544171
-3.517754
-3.489853
-3.459901
-3.427243
-3.391238
-3.351350
-3.307097
-3.258482
-3.205674
-3.149052
-3.089214
-3.026266
-2.961645
-2.896198
-2.830787
-2.766143
-2.703070
-2.642030
-2.583740
-2.528740
-2.477343
-2.429714
-2.385862
-2.345698
-2.309147
-2.276008
-2.245970
-2.218625
-2.193514
-2.170190
-2.148202
-2.127077
-2.106352
-2.085616
-2.064545
-2.042906
-2.020568
-1.997522
-1.973900
-1.949971
-1.926135
-1.902897
-1.880848
-1.860625
-1.842867
-1.828178
-1.817083
-1.809999
-1.807212
-1.808869
-1.814976
-1.825410
-1.839929
-1.858200
-1.879813
-1.904306
-1.931183
-1.959930
-1.990034
-2.020989
-2.052312
-2.083550
-2.114287
-2.144151
-2.172823
-2.200040
-2.225604
-2.249380
-2.271305
-2.291383
-2.309687
-2.326348
-2.341557
-2.355547
-2.368587
-2.380969
-2.393002
-2.404991
-2.417240
-2.430031
-2.443624
-2.458241
-2.474063
-2.491223
-2.509811
-2.529887
-2.551495
-2.574623
-2.598844
-2.624533
-2.651745
-2.680611
-2.711309
-2.744138
-2.779563
-2.822326
9.934460
9.934371
9.934127
9.933748
9.933265
9.932710
9.932110
9.931490
9.930871
9.930265
9.929686
9.929140
9.928634
9.928173
9.927759
9.927394
9.927079
9.926814
9.926599
9.926432
9.926309
9.926226
9.926174
9.926143
9.926118
9.926076
9.925985
9.925800
9.925458
9.924868
9.923895
9.922347
9.919930
9.916201
9.910467
9.901613
9.887790
9.865794
9.829778
9.766001
9.642825
9.376522
8.693527
6.232345
-1.813590
-3.617422
-3.500394
-3.546324
-3.641155
-3.798771
-4.013774
-4.292109
-4.282107
-4.179269
-4.073045
-3.988178
-3.901825
-3.768504
-3.554488
-3.274633
-3.026471
-2.883317
-2.816930
-2.851824
-3.020395
-3.294057
-3.605228
-3.836975
-3.935864
-3.993573
-3.955975
-3.748305
-3.462481
-3.204132
-2.998181
-2.836010
-2.714097
-2.633820
-2.594439
-2.590328
-2.612445
-2.657129
-2.720542
-2.798979
-2.888817
-2.986400
-3.087999
-3.189861
-3.288293
-3.379852
-3.461647
-3.531434
-3.587740
-3.629977
-3.658429
-3.674225
-3.678910
-3.674101
-3.659421
-3.639532
-3.616661
-3.592221
-3.567088
-3.541786
-3.516141
-3.489592
-3.461336
-3.430479
-3.396172
-3.357730
-3.314715
-3.266811
-3.214220
-3.157366
-3.096840
-3.033285
-2.967832
-2.901484
-2.835195
-2.769832
-2.706200
-2.644944
-2.586687
-2.531919
-2.480949
-2.433933
-2.390890
-2.351733
-2.316316
-2.284396
-2.255640
-2.229633
-2.205914
-2.184000
-2.163397
-2.143602
-2.124131
-2.104541
-2.084465
-2.063625
-2.041855
-2.019119
-1.995527
-1.971342
-1.946972
-1.922954
-1.899923
-1.878573
-1.859612
-1.843709
-1.831454
-1.823316
-1.819619
-1.820532
-1.826070
-1.836104
-1.850380
-1.868542
-1.890160
-1.914748
-1.941786
-1.970742
-2.001081
-2.032284
-2.063850
-2.095312
-2.126239
-2.156249
-2.185009
-2.212244
-2.237745
-2.261370
-2.283048
-2.302781
-2.320640
-2.336761
-2.351339
-2.364617
-2.376876
-2.388421
-2.399573
-2.410653
-2.421975
-2.433836
-2.446502
-2.460207
-2.475139
-2.491437
-2.509199
-2.528501
-2.549455
-2.571680
-2.595382
-2.620642
-2.647554
-2.676267
-2.707010
-2.740157
-2.776278
-2.820762
9.932628
9.932558
9.932362
9.932054
9.931656
9.931190
9.930676
9.930135
9.929584
9.929036
9.928501
9.927987
9.927502
9.927049
9.926632
9.926253
9.925913
9.925611
9.925348
9.925122
9.924927
9.924760
9.924613
9.924476
9.924334
9.924168
9.923952
9.923653
9.923226
9.922607
9.921714
9.920432
9.918600
9.915986
9.912243
9.906831
9.898868
9.886826
9.867105
9.832798
9.768269
9.635650
9.341409
8.951396
3.568903
-3.617422
-3.500394
-3.546323
-3.641155
-3.798771
-4.495308
-4.976842
-4.736275
-4.653851
-4.592622
-4.590735
-4.599523
-4.515965
-4.280379
-3.930920
-3.568597
-3.280640
-3.109694
-3.083404
-3.205182
-3.439694
-3.720040
-3.948767
-4.068098
-4.124848
-4.046009
-3.792405
-3.483113
-3.201361
-2.975653
-2.796803
-2.659747
-2.570567
-2.527977
-2.525544
-2.551739
-2.602134
-2.672354
-2.758553
-2.857054
-2.964048
-3.075509
-3.187255
-3.295058
-3.394894
-3.483197
-3.557238
-3.615388
-3.657172
-3.683187
-3.694758
-3.693919
-3.681485
-3.660760
-3.636525
-3.610614
-3.584375
-3.558669
-3.533793
-3.509406
-3.484713
-3.458640
-3.430022
-3.397770
-3.361009
-3.319162
-3.271964
-3.219568
-3.162444
-3.101299
-3.037023
-2.970732
-2.903543
-2.836521
-2.770632
-2.706731
-2.645528
-2.587615
-2.533436
-2.483270
-2.437245
-2.395355
-2.357487
-2.323446
-2.292950
-2.265641
-2.241094
-2.218838
-2.198372
-2.179182
-2.160751
-2.142577
-2.124198
-2.105216
-2.085320
-2.064310
-2.042121
-2.018838
-1.994708
-1.970138
-1.945684
-1.922014
-1.899872
-1.880025
-1.863206
-1.850062
-1.841109
-1.836705
-1.837033
-1.842107
-1.851782
-1.865783
-1.883731
-1.905172
-1.929605
-1.956500
-1.985320
-2.015528
-2.046602
-2.078041
-2.109375
-2.140170
-2.170035
-2.198633
-2.225679
-2.250957
-2.274315
-2.295677
-2.315039
-2.332466
-2.348096
-2.362122
-2.374790
-2.386383
-2.397211
-2.407600
-2.417875
-2.428355
-2.439338
-2.451096
-2.463865
-2.477835
-2.493149
-2.509905
-2.528163
-2.547972
-2.569331
-2.592209
-2.616684
-2.642860
-2.670897
-2.701047
-2.733724
-2.769611
-2.815169
9.930928
9.930870
9.930708
9.930452
9.930116
9.929717
9.929270
9.928791
9.928295
9.927793
9.927294
9.926807
9.926338
9.925890
9.925468
9.925074
9.924708
9.924371
9.924063
9.923780
9.923519
9.923276
9.923044
9.922813
9.922572
9.922308
9.922002
9.921634
9.921180
9.920616
9.919915
9.919058
9.918036
9.916862
9.915588
9.914325
9.913252
9.912580
9.912471
9.912779
9.912133
9.907221
9.895818
9.897684
9.897684
0.000000
0.000000
0.000000
0.000000
0.000000
-4.883606
-4.883606
-4.843231
-4.841584
-4.806192
-4.894590
-5.117926
-5.219644
-5.049165
-4.658190
-4.185598
-3.758972
-3.460115
-3.326667
-3.355412
-3.507119
-3.715869
-3.901027
-4.009502
-4.026675
-3.914083
-3.669859
-3.400682
-3.142305
-2.923455
-2.746925
-2.612929
-2.526686
-2.481991
-2.472918
-2.499392
-2.552564
-2.627089
-2.719040
-2.824797
-2.940450
-3.061640
-3.183634
-3.301474
-3.410289
-3.505725
-3.584410
-3.644348
-3.685096
-3.707605
-3.713634
-3.704223
-3.683153
-3.656340
-3.627141
-3.597790
-3.569716
-3.543632
-3.519561
-3.496881
-3.474488
-3.450992
-3.424928
-3.394959
-3.360022
-3.319431
-3.272919
-3.220657
-3.163199
-3.101394
-3.036311
-2.969170
-2.901215
-2.833620
-2.767445
-2.703592
-2.642798
-2.585631
-2.532487
-2.483595
-2.439028
-2.398732
-2.362546
-2.330221
-2.301433
-2.275794
-2.252861
-2.232154
-2.213167
-2.195384
-2.178285
-2.161371
-2.144176
-2.126294
-2.107398
-2.087267
-2.065810
-2.043087
-2.019327
-1.994927
-1.970446
-1.946575
-1.924092
-1.903812
-1.886517
-1.872904
-1.863526
-1.858764
-1.858807
-1.863656
-1.873142
-1.886954
-1.904679
-1.925833
-1.949893
-1.976324
-2.004597
-2.034192
-2.064615
-2.095389
-2.126067
-2.156232
-2.185502
-2.213542
-2.240069
-2.264859
-2.287757
-2.308677
-2.327605
-2.344603
-2.359798
-2.373376
-2.385576
-2.396676
-2.406978
-2.416801
-2.426465
-2.436279
-2.446537
-2.457502
-2.469403
-2.482428
-2.496715
-2.512358
-2.529398
-2.547818
-2.568014
-2.589705
-2.612943
-2.637828
-2.664507
-2.693210
-2.724315
-2.758481
-2.802625
9.929334
9.929285
9.929148
9.928930
9.928640
9.928291
9.927895
9.927465
9.927012
9.926547
9.926077
9.925610
9.925151
9.924706
9.924277
9.923866
9.923475
9.923104
9.922752
9.922416
9.922094
9.921781
9.921472
9.921159
9.920834
9.920488
9.920111
9.919697
9.919242
9.918757
9.918269
9.917845
9.917616
9.917816
9.918857
9.921417
9.926585
9.935996
9.952519
9.980176
10.023771
10.088438
10.175938
10.276607
10.276606
0.000000
0.000000
0.000000
0.000000
0.000000
-4.855624
-4.855625
-4.867140
-4.900586
-4.969339
-5.146767
-5.499788
-5.836223
-5.736187
-5.297982
-4.718054
-4.160773
-3.731587
-3.477006
-3.394049
-3.443508
-3.563993
-3.687372
-3.761260
-3.754677
-3.649770
-3.461504
-3.241644
-3.033055
-2.849814
-2.699339
-2.581634
-2.496298
-2.446808
-2.436682
-2.460736
-2.512608
-2.587554
-2.682083
-2.792826
-2.915808
-3.046280
-3.178822
-3.307534
-3.426432
-3.530016
-3.613943
-3.675647
-3.714704
-3.732685
-3.730334
-3.710653
-3.681442
-3.647482
-3.612538
-3.579207
-3.548999
-3.522459
-3.499289
-3.478500
-3.458603
-3.437849
-3.414461
-3.386846
-3.353765
-3.314435
-3.268575
-3.216405
-3.158582
-3.096106
-3.030218
-2.962290
-2.893700
-2.825741
-2.759556
-2.696093
-2.636096
-2.580104
-2.528460
-2.481326
-2.438708
-2.400483
-2.366419
-2.336207
-2.309468
-2.285773
-2.264655
-2.245619
-2.228158
-2.211760
-2.195923
-2.180167
-2.164048
-2.147174
-2.129229
-2.109991
-2.089360
-2.067381
-2.044264
-2.020391
-1.996314
-1.972728
-1.950431
-1.930265
-1.913046
-1.899501
-1.890206
-1.885552
-1.885719
-1.890685
-1.900247
-1.914052
-1.931642
-1.952495
-1.976062
-2.001795
-2.029171
-2.057698
-2.086920
-2.116415
-2.145790
-2.174677
-2.202739
-2.229669
-2.255199
-2.279114
-2.301254
-2.321528
-2.339911
-2.356448
-2.371252
-2.384493
-2.396392
-2.407206
-2.417221
-2.426733
-2.436043
-2.445442
-2.455202
-2.465572
-2.476763
-2.488950
-2.502264
-2.516791
-2.532574
-2.549611
-2.568110
-2.588259
-2.609777
-2.632761
-2.657318
-2.683598
-2.711827
-2.742380
-2.780809
9.927832
9.927789
9.927670
9.927479
9.927223
9.926911
9.926554
9.926161
9.925742
9.925304
9.924856
9.924404
9.923952
9.923506
9.923067
9.922639
9.922223
9.921818
9.921423
9.921038
9.920659
9.920282
9.919903
9.919516
9.919116
9.918696
9.918256
9.917797
9.917333
9.916897
9.916556
9.916437
9.916764
9.917923
9.920561
9.925734
9.935121
9.951270
9.977795
10.020173
10.084902
10.175718
10.286533
10.389725
10.389725
0.000000
0.000000
0.000000
0.000000
0.000000
-4.844160
-4.844160
-4.887628
-4.959274
-5.099611
-5.379735
-5.883433
-6.419278
-6.260225
-5.737470
-5.053206
-4.384526
-3.846854
-3.490085
-3.310442
-3.269081
-3.309785
-3.374045
-3.414728
-3.402388
-3.326807
-3.199783
-3.048711
-2.898164
-2.760855
-2.641228
-2.544249
-2.473230
-2.431376
-2.420718
-2.439650
-2.485602
-2.556318
-2.649483
-2.762136
-2.890288
-3.028822
-3.171590
-3.311633
-3.441602
-3.554452
-3.644378
-3.707831
-3.744318
-3.756524
-3.743762
-3.715024
-3.676842
-3.634864
-3.593499
-3.555713
-3.523066
-3.495890
-3.473519
-3.454536
-3.437043
-3.418925
-3.398105
-3.372761
-3.341494
-3.303431
-3.258275
-3.206289
-3.148231
-3.085249
-3.018750
-2.950262
-2.881308
-2.813292
-2.747430
-2.684708
-2.625867
-2.571411
-2.521629
-2.476613
-2.436297
-2.400481
-2.368863
-2.341061
-2.316638
-2.295114
-2.275982
-2.258727
-2.242832
-2.227795
-2.213136
-2.198408
-2.183210
-2.167192
-2.150075
-2.131665
-2.111877
-2.090756
-2.068501
-2.045479
-2.022228
-1.999434
-1.977893
-1.958454
-1.941943
-1.929092
-1.920480
-1.916482
-1.917256
-1.922744
-1.932698
-1.946717
-1.964299
-1.984884
-2.007895
-2.032772
-2.058998
-2.086106
-2.113682
-2.141364
-2.168829
-2.195789
-2.221977
-2.247151
-2.271095
-2.293625
-2.314597
-2.333921
-2.351563
-2.367548
-2.381966
-2.394957
-2.406712
-2.417455
-2.427436
-2.436918
-2.446168
-2.455444
-2.464987
-2.475015
-2.485718
-2.497247
-2.509716
-2.523202
-2.537743
-2.553347
-2.570008
-2.588201
-2.607545
-2.628066
-2.649796
-2.672761
-2.696959
-2.722322
-2.751936
9.926407
9.926370
9.926263
9.926092
9.925861
9.925578
9.925250
9.924884
9.924490
9.924073
9.923640
9.923196
9.922748
9.922297
9.921847
9.921401
9.920958
9.920520
9.920086
9.919654
9.919221
9.918785
9.918341
9.917885
9.917414
9.916924
9.916416
9.915899
9.915391
9.914938
9.914619
9.914581
9.915080
9.916544
9.919692
9.925690
9.936397
9.954665
9.984626
10.031652
10.101055
10.194840
10.304272
10.400717
10.400717
0.000000
0.000000
0.000000
0.000000
0.000000
-4.866905
-4.866905
-4.927508
-5.017789
-5.177349
-5.469967
-5.944427
-6.499391
-6.473527
-5.883423
-5.127048
-4.385964
-3.783589
-3.369592
-3.134788
-3.037336
-3.024496
-3.046191
-3.063648
-3.053634
-3.008958
-2.935836
-2.847390
-2.755411
-2.666601
-2.584290
-2.512393
-2.455825
-2.419955
-2.408808
-2.423761
-2.464613
-2.530652
-2.620774
-2.732954
-2.863751
-3.008115
-3.159467
-3.309929
-3.450787
-3.573312
-3.669953
-3.735757
-3.769751
-3.775872
-3.755113
-3.717116
-3.669537
-3.619072
-3.570875
-3.528296
-3.492924
-3.464841
-3.442981
-3.425494
-3.410085
-3.394316
-3.375857
-3.352689
-3.323267
-3.286620
-3.242409
-3.190918
-3.132985
-3.069887
-3.003187
-2.934572
-2.865697
-2.798067
-2.732958
-2.671370
-2.614026
-2.561384
-2.513669
-2.470909
-2.432971
-2.399592
-2.370412
-2.344996
-2.322854
-2.303463
-2.286276
-2.270750
-2.256352
-2.242581
-2.228977
-2.215130
-2.200689
-2.185367
-2.168945
-2.151281
-2.132328
-2.112152
-2.090954
-2.069092
-2.047084
-2.025598
-2.005411
-1.987354
-1.972236
-1.960770
-1.953504
-1.950775
-1.952694
-1.959148
-1.969834
-1.984301
-2.002003
-2.022348
-2.044742
-2.068627
-2.093497
-2.118915
-2.144514
-2.169990
-2.195094
-2.219619
-2.243385
-2.266235
-2.288028
-2.308643
-2.327979
-2.345969
-2.362583
-2.377834
-2.391785
-2.404541
-2.416248
-2.427085
-2.437254
-2.446967
-2.456441
-2.465889
-2.475508
-2.485475
-2.495944
-2.507036
-2.518838
-2.531407
-2.544765
-2.558911
-2.573826
-2.589655
-2.606495
-2.624125
-2.642506
-2.661540
-2.681018
-2.700505
-2.720910
9.925053
9.925019
9.924922
9.924765
9.924552