# vtk DataFile Version 3.0
Scalar Field
ASCII
DATASET RECTILINEAR_GRID
DIMENSIONS 200 50 1
X_COORDINATES 200 double
0.050000 0.150000 0.250000 0.350000 0.450000 0.550000 0.650000 0.750000 0.850000 0.950000 1.050000 1.150000 1.250000 1.350000 1.450000 1.550000 1.650000 1.750000 1.850000 1.950000 2.050000 2.150000 2.250000 2.350000 2.450000 2.550000 2.650000 2.750000 2.850000 2.950000 3.050000 3.150000 3.250000 3.350000 3.450000 3.550000 3.650000 3.750000 3.850000 3.950000 4.050000 4.150000 4.250000 4.350000 4.450000 4.550000 4.650000 4.750000 4.850000 4.950000 5.050000 5.150000 5.250000 5.350000 5.450000 5.550000 5.650000 5.750000 5.850000 5.950000 6.050000 6.150000 6.250000 6.350000 6.450000 6.550000 6.650000 6.750000 6.850000 6.950000 7.050000 7.150000 7.250000 7.350000 7.450000 7.550000 7.650000 7.750000 7.850000 7.950000 8.050000 8.150000 8.250000 8.350000 8.450000 8.550000 8.650000 8.750000 8.850000 8.950000 9.050000 9.150000 9.250000 9.350000 9.450000 9.550000 9.650000 9.750000 9.850000 9.950000 10.050000 10.150000 10.250000 10.350000 10.450000 10.550000 10.650000 10.750000 10.850000 10.950000 11.050000 11.150000 11.250000 11.350000 11.450000 11.550000 11.650000 11.750000 11.850000 11.950000 12.050000 12.150000 12.250000 12.350000 12.450000 12.550000 12.650000 12.750000 12.850000 12.950000 13.050000 13.150000 13.250000 13.350000 13.450000 13.550000 13.650000 13.750000 13.850000 13.950000 14.050000 14.150000 14.250000 14.350000 14.450000 14.550000 14.650000 14.750000 14.850000 14.950000 15.050000 15.150000 15.250000 15.350000 15.450000 15.550000 15.650000 15.750000 15.850000 15.950000 16.050000 16.150000 16.250000 16.350000 16.450000 16.550000 16.650000 16.750000 16.850000 16.950000 17.050000 17.150000 17.250000 17.350000 17.450000 17.550000 17.650000 17.750000 17.850000 17.950000 18.050000 18.150000 18.250000 18.350000 18.450000 18.550000 18.650000 18.750000 18.850000 18.950000 19.050000 19.150000 19.250000 19.350000 19.450000 19.550000 19.650000 19.750000 19.850000 19.950000 
Y_COORDINATES 50 double
0.050000 0.150000 0.250000 0.350000 0.450000 0.550000 0.650000 0.750000 0.850000 0.950000 1.050000 1.150000 1.250000 1.350000 1.450000 1.550000 1.650000 1.750000 1.850000 1.950000 2.050000 2.150000 2.250000 2.350000 2.450000 2.550000 2.650000 2.750000 2.850000 2.950000 3.050000 3.150000 3.250000 3.350000 3.450000 3.550000 3.650000 3.750000 3.850000 3.950000 4.050000 4.150000 4.250000 4.350000 4.450000 4.550000 4.650000 4.750000 4.850000 4.950000 
Z_COORDINATES 1 double
0.0
POINT_DATA 10000
SCALARS Skalarfeld double 1
LOOKUP_TABLE default
10.229976
10.217563
10.210525
10.205889
10.202515
10.199897
10.197786
10.196040
10.194576
10.193342
10.192303
10.191435
10.190724
10.190159
10.189736
10.189453
10.189309
10.189309
10.189459
10.189769
10.190249
10.190916
10.191788
10.192887
10.194241
10.195882
10.197850
10.200193
10.202969
10.206250
10.210126
10.214704
10.220116
10.226518
10.234083
10.242980
10.253333
10.265128
10.278048
10.291233
10.303006
10.309454
10.310981
10.328951
10.328951
0.000000
0.000000
0.000000
0.000000
0.000000
-2.556805
-2.556805
-2.562507
-2.570410
-2.577122
-2.582868
-2.591796
-2.602152
-2.607500
-2.619413
-2.645619
-2.687552
-2.747188
-2.824200
-2.915513
-3.015010
-3.113707
-3.200654
-3.264576
-3.296006
-3.289287
-3.243632
-3.163150
-3.057571
-2.937103
-2.811674
-2.689364
-2.575961
-2.475144
-2.388894
-2.317937
-2.262119
-2.220688
-2.192501
-2.176167
-2.170144
-2.172825
-2.182592
-2.197875
-2.217196
-2.239199
-2.262681
-2.286598
-2.310077
-2.332405
-2.353020
-2.371495
-2.387516
-2.400864
-2.411398
-2.419037
-2.423745
-2.425525
-2.424416
-2.420483
-2.413832
-2.404601
-2.392972
-2.379172
-2.363471
-2.346184
-2.327662
-2.308287
-2.288459
-2.268587
-2.249076
-2.230311
-2.212651
-2.196415
-2.181873
-2.169240
-2.158669
-2.150247
-2.143990
-2.139877
-2.137794
-2.137556
-2.138962
-2.141775
-2.145722
-2.150501
-2.155790
-2.161254
-2.166561
-2.171387
-2.175428
-2.178411
-2.180098
-2.180296
-2.178853
-2.175661
-2.170662
-2.163854
-2.155322
-2.145200
-2.133655
-2.120890
-2.107138
-2.092645
-2.077669
-2.062462
-2.047272
-2.032325
-2.017825
-2.003945
-1.990822
-1.978555
-1.967199
-1.956766
-1.947228
-1.938507
-1.930486
-1.923009
-1.915891
-1.908920
-1.901870
-1.894505
-1.886596
-1.877929
-1.868314
-1.857593
-1.845650
-1.832415
-1.817869
-1.802042
-1.785007
-1.766884
-1.747823
-1.728006
-1.707628
-1.686895
-1.666010
-1.645168
-1.624551
-1.604318
-1.584605
-1.565522
-1.547152
-1.529549
-1.512745
-1.496746
-1.481542
-1.467105
-1.453399
-1.440379
-1.427987
-1.416157
-1.404804
-1.393812
-1.383196
10.215879
10.212218
10.208085
10.204556
10.201669
10.199297
10.197323
10.195661
10.194252
10.193055
10.192042
10.191192
10.190493
10.189937
10.189518
10.189234
10.189087
10.189081
10.189221
10.189516
10.189978
10.190620
10.191461
10.192521
10.193825
10.195404
10.197293
10.199535
10.202182
10.205296
10.208953
10.213247
10.218289
10.224209
10.231154
10.239273
10.248686
10.259417
10.271279
10.283670
10.295204
10.303876
10.315608
10.341243
10.341244
0.000000
0.000000
0.000000
0.000000
0.000000
-2.559449
-2.559450
-2.565128
-2.572197
-2.577914
-2.580590
-2.589684
-2.600831
-2.607448
-2.619497
-2.645106
-2.688094
-2.750533
-2.832197
-2.929880
-3.036968
-3.143587
-3.237576
-3.306365
-3.339480
-3.330995
-3.281177
-3.194178
-3.079946
-2.951156
-2.818609
-2.690594
-2.572844
-2.468883
-2.380520
-2.308315
-2.251964
-2.210581
-2.182904
-2.167430
-2.162517
-2.166463
-2.177565
-2.194180
-2.214768
-2.237932
-2.262437
-2.287229
-2.311430
-2.334336
-2.355399
-2.374210
-2.390475
-2.403992
-2.414634
-2.422332
-2.427063
-2.428833
-2.427680
-2.423669
-2.416898
-2.407501
-2.395657
-2.381588
-2.365566
-2.347909
-2.328974
-2.309155
-2.288864
-2.268525
-2.248557
-2.229361
-2.211310
-2.194734
-2.179916
-2.167077
-2.156379
-2.147917
-2.141728
-2.137770
-2.135863
-2.135825
-2.137469
-2.140557
-2.144811
-2.149919
-2.155548
-2.161353
-2.166990
-2.172125
-2.176446
-2.179672
-2.181562
-2.181918
-2.180592
-2.177472
-2.172483
-2.165626
-2.156991
-2.146710
-2.134967
-2.121976
-2.107976
-2.093226
-2.077989
-2.062530
-2.047101
-2.031938
-2.017251
-2.003220
-1.989985
-1.977651
-1.966273
-1.955868
-1.946399
-1.937788
-1.929917
-1.922623
-1.915715
-1.908971
-1.902155
-1.895022
-1.887334
-1.878864
-1.869412
-1.858815
-1.846954
-1.833757
-1.819203
-1.803324
-1.786199
-1.767948
-1.748734
-1.728743
-1.708182
-1.687261
-1.666193
-1.645178
-1.624403
-1.604031
-1.584203
-1.565028
-1.546589
-1.528942
-1.512114
-1.496110
-1.480916
-1.466501
-1.452826
-1.439845
-1.427501
-1.415729
-1.404451
-1.393563
-1.383019
10.208529
10.207179
10.204851
10.202402
10.200139
10.198138
10.196395
10.194883
10.193574
10.192446
10.191480
10.190661
10.189981
10.189434
10.189015
10.188723
10.188561
10.188531
10.188638
10.188891
10.189298
10.189871
10.190626
10.191578
10.192746
10.194152
10.195821
10.197781
10.200062
10.202699
10.205728
10.209189
10.213119
10.217554
10.222521
10.228031
10.234071
10.240603
10.247612
10.255284
10.264649
10.279764
10.311966
10.369376
10.369377
0.000000
0.000000
0.000000
0.000000
0.000000
-2.557889
-2.557890
-2.565443
-2.570810
-2.576821
-2.579839
-2.587043
-2.596883
-2.605157
-2.618207
-2.645557
-2.692865
-2.762673
-2.854970
-2.966287
-3.088990
-3.211418
-3.319035
-3.396718
-3.431977
-3.418120
-3.355677
-3.250783
-3.118738
-2.973891
-2.828021
-2.689609
-2.564152
-2.454804
-2.362987
-2.288905
-2.231954
-2.190989
-2.164528
-2.150873
-2.148201
-2.154641
-2.168337
-2.187512
-2.210518
-2.235880
-2.262314
-2.288740
-2.314279
-2.338244
-2.360118
-2.379528
-2.396216
-2.410017
-2.420832
-2.428620
-2.433372
-2.435105
-2.433856
-2.429685
-2.422680
-2.412965
-2.400707
-2.386126
-2.369494
-2.351136
-2.331424
-2.310770
-2.289611
-2.268398
-2.247578
-2.227581
-2.208804
-2.191600
-2.176271
-2.163054
-2.152118
-2.143562
-2.137409
-2.133607
-2.132017
-2.132377
-2.134510
-2.138166
-2.143050
-2.148830
-2.155149
-2.161642
-2.167943
-2.173696
-2.178573
-2.182278
-2.184560
-2.185219
-2.184118
-2.181087
-2.176029
-2.169025
-2.160156
-2.149564
-2.137442
-2.124019
-2.109553
-2.094318
-2.078595
-2.062661
-2.046788
-2.031223
-2.016190
-2.001878
-1.988438
-1.975977
-1.964559
-1.954197
-1.944856
-1.936454
-1.928863
-1.921911
-1.915392
-1.909070
-1.902690
-1.895989
-1.888707
-1.880601
-1.871455
-1.861093
-1.849385
-1.836254
-1.821681
-1.805702
-1.788405
-1.769912
-1.750406
-1.730091
-1.709185
-1.687916
-1.666508
-1.645175
-1.624114
-1.603493
-1.583459
-1.564123
-1.545569
-1.527850
-1.510991
-1.494992
-1.479835
-1.465470
-1.451865
-1.438965
-1.426708
-1.415028
-1.403853
-1.393108
-1.382659
10.203755
10.203123
10.201744
10.200063
10.198347
10.196720
10.195231
10.193895
10.192709
10.191665
10.190757
10.189977
10.189319
10.188780
10.188358
10.188053
10.187866
10.187800
10.187860
10.188050
10.188379
10.188855
10.189487
10.190286
10.191264
10.192429
10.193793
10.195361
10.197135
10.199108
10.201259
10.203544
10.205885
10.208156
10.210160
10.211602
10.212075
10.211065
10.208101
10.203274
10.198849
10.203259
10.236672
10.320756
10.320757
0.000000
0.000000
0.000000
0.000000
0.000000
-2.546299
-2.546300
-2.554749
-2.563132
-2.570192
-2.577561
-2.586897
-2.595757
-2.600351
-2.609567
-2.638669
-2.693099
-2.774282
-2.882453
-3.013925
-3.159640
-3.305487
-3.433534
-3.524710
-3.563183
-3.541148
-3.457710
-3.327115
-3.169357
-3.002059
-2.838111
-2.685908
-2.550406
-2.434154
-2.338013
-2.261696
-2.204197
-2.164026
-2.139418
-2.128424
-2.128977
-2.138973
-2.156346
-2.179129
-2.205523
-2.233942
-2.263037
-2.291695
-2.319038
-2.344407
-2.367332
-2.387497
-2.404702
-2.418833
-2.429837
-2.437707
-2.442459
-2.444120
-2.442725
-2.438325
-2.430992
-2.420833
-2.408002
-2.392710
-2.375230
-2.355896
-2.335099
-2.313278
-2.290906
-2.268468
-2.246453
-2.225327
-2.205525
-2.187433
-2.171375
-2.157611
-2.146324
-2.137617
-2.131507
-2.127929
-2.126671
-2.127551
-2.130355
-2.134806
-2.140577
-2.147305
-2.154603
-2.162071
-2.169312
-2.175943
-2.181609
-2.185990
-2.188821
-2.189893
-2.189068
-2.186106
-2.181011
-2.173819
-2.164629
-2.153602
-2.140949
-2.126923
-2.111803
-2.095890
-2.079485
-2.062885
-2.046386
-2.030256
-2.014735
-2.000024
-1.986288
-1.973643
-1.962158
-1.951848
-1.942678
-1.934559
-1.927353
-1.920876
-1.914900
-1.909169
-1.903404
-1.897313
-1.890610
-1.883025
-1.874318
-1.864294
-1.852808
-1.839778
-1.825183
-1.809067
-1.791538
-1.772700
-1.752786
-1.732016
-1.710630
-1.688875
-1.666995
-1.645220
-1.623759
-1.602795
-1.582480
-1.562929
-1.544226
-1.526422
-1.509534
-1.493556
-1.478459
-1.464194
-1.450706
-1.437931
-1.425800
-1.414241
-1.403184
-1.392554
-1.382169
10.200173
10.199816
10.198939
10.197764
10.196468
10.195165
10.193918
10.192759
10.191702
10.190751
10.189908
10.189171
10.188539
10.188011
10.187586
10.187265
10.187049
10.186942
10.186945
10.187064
10.187303
10.187667
10.188161
10.188789
10.189554
10.190455
10.191486
10.192632
10.193865
10.195135
10.196361
10.197411
10.198078
10.198045
10.196828
10.193699
10.187569
10.176847
10.159278
10.131929
10.091902
10.039716
9.990277
9.994647
9.994648
0.000000
0.000000
0.000000
0.000000
0.000000
-2.527771
-2.527772
-2.538374
-2.550241
-2.562061
-2.575608
-2.591058
-2.600939
-2.592207
-2.585748
-2.616169
-2.680766
-2.776026
-2.904361
-3.062628
-3.239918
-3.419121
-3.577653
-3.690074
-3.734444
-3.700505
-3.587283
-3.420417
-3.228626
-3.033220
-2.847520
-2.679104
-2.531903
-2.407653
-2.306555
-2.227756
-2.169809
-2.130792
-2.108639
-2.101110
-2.105835
-2.120412
-2.142499
-2.169886
-2.200575
-2.232839
-2.265242
-2.296635
-2.326148
-2.353165
-2.377284
-2.398271
-2.416009
-2.430454
-2.441613
-2.449526
-2.454234
-2.455775
-2.454180
-2.449486
-2.441744
-2.431037
-2.417496
-2.401322
-2.382786
-2.362232
-2.340074
-2.316785
-2.292880
-2.268893
-2.245361
-2.222801
-2.201691
-2.182457
-2.165458
-2.150978
-2.139223
-2.130301
-2.124227
-2.120907
-2.120016
-2.121515
-2.125145
-2.130582
-2.137460
-2.145378
-2.153906
-2.162605
-2.171038
-2.178782
-2.185448
-2.190688
-2.194211
-2.195790
-2.195270
-2.192468
-2.187333
-2.179912
-2.170320
-2.158743
-2.145418
-2.130626
-2.114678
-2.097905
-2.080641
-2.063191
-2.045898
-2.029047
-2.012900
-1.997677
-1.983556
-1.970666
-1.959083
-1.948826
-1.939860
-1.932088
-1.925362
-1.919480
-1.914194
-1.909219
-1.904242
-1.898940
-1.892988
-1.886082
-1.877951
-1.868372
-1.857183
-1.844289
-1.829669
-1.813372
-1.795514
-1.776256
-1.755826
-1.734478
-1.712480
-1.690110
-1.667637
-1.645312
-1.623362
-1.601982
-1.581332
-1.561532
-1.542664
-1.524775
-1.507877
-1.491952
-1.476958
-1.462836
-1.449514
-1.436914
-1.424956
-1.413561
-1.402651
-1.392154
-1.381820
10.197258
10.197029
10.196434
10.195587
10.194598
10.193556
10.192519
10.191523
10.190590
10.189732
10.188955
10.188263
10.187658
10.187140
10.186712
10.186374
10.186127
10.185975
10.185919
10.185961
10.186105
10.186351
10.186702
10.187155
10.187705
10.188344
10.189051
10.189796
10.190525
10.191155
10.191555
10.191523
10.190744
10.188734
10.184742
10.177592
10.165423
10.145206
10.111833
10.056212
9.960901
9.789318
9.458766
9.072743
3.689608
-3.432058
-3.264349
-3.241219
-3.216345
-3.128433
-2.722925
-2.510468
-2.521813
-2.537029
-2.554080
-2.575460
-2.604787
-2.626822
-2.583620
-2.535077
-2.573329
-2.654099
-2.762667
-2.913865
-3.106206
-3.325169
-3.550390
-3.753159
-3.897431
-3.950262
-3.896444
-3.737574
-3.522302
-3.289470
-3.062631
-2.853657
-2.668177
-2.508564
-2.375679
-2.269174
-2.187687
-2.129429
-2.091879
-2.072769
-2.069529
-2.079411
-2.099627
-2.127485
-2.160479
-2.196365
-2.233233
-2.269545
-2.304111
-2.336081
-2.364905
-2.390279
-2.412078
-2.430292
-2.444976
-2.456219
-2.464110
-2.468717
-2.470086
-2.468243
-2.463201
-2.454982
-2.443636
-2.429270
-2.412058
-2.392263
-2.370244
-2.346444
-2.321378
-2.295614
-2.269748
-2.244377
-2.220076
-2.197379
-2.176759
-2.158617
-2.143268
-2.130937
-2.121746
-2.115726
-2.112549
-2.112141
-2.114386
-2.118986
-2.125584
-2.133770
-2.143096
-2.153086
-2.163251
-2.173106
-2.182185
-2.190053
-2.196329
-2.200686
-2.202874
-2.202718
-2.200125
-2.194951
-2.187255
-2.177180
-2.164935
-2.150794
-2.135072
-2.118117
-2.100295
-2.081974
-2.063512
-2.045261
-2.027541
-2.010637
-1.994793
-1.980205
-1.967015
-1.955310
-1.945113
-1.936388
-1.929033
-1.922886
-1.917724
-1.913273
-1.909216
-1.905201
-1.900860
-1.895827
-1.889753
-1.882326
-1.873292
-1.862463
-1.849734
-1.835082
-1.818566
-1.800321
-1.780544
-1.759490
-1.737447
-1.714720
-1.691621
-1.668448
-1.645479
-1.622962
-1.601107
-1.580082
-1.560011
-1.540976
-1.523017
-1.506138
-1.490307
-1.475469
-1.461548
-1.448454
-1.436093
-1.424369
-1.413193
-1.402482
-1.392160
-1.381912
10.194768
10.194609
10.194183
10.193551
10.192783
10.191943
10.191079
10.190225
10.189404
10.188632
10.187918
10.187270
10.186690
10.186183
10.185750
10.185393
10.185114
10.184915
10.184797
10.184761
10.184807
10.184936
10.185144
10.185426
10.185772
10.186166
10.186581
10.186973
10.187276
10.187389
10.187154
10.186329
10.184544
10.181221
10.175450
10.165774
10.149791
10.123383
10.079067
10.002082
9.859634
9.565902
8.848939
6.360568
-1.693529
-3.432058
-3.264349
-3.241219
-3.216346
-3.128434
-2.935384
-2.701880
-2.637653
-2.618202
-2.608917
-2.608742
-2.624499
-2.637037
-2.560869
-2.460588
-2.518156
-2.623513
-2.732277
-2.906900
-3.142069
-3.412498
-3.696584
-3.958695
-4.144663
-4.202614
-4.106996
-3.886044
-3.615540
-3.340315
-3.083303
-2.852655
-2.651352
-2.479813
-2.338178
-2.225942
-2.141463
-2.082436
-2.046733
-2.031494
-2.033659
-2.049970
-2.077139
-2.112016
-2.151735
-2.193771
-2.236000
-2.276758
-2.314829
-2.349412
-2.380067
-2.406628
-2.429122
-2.447680
-2.462478
-2.473696
-2.481480
-2.485928
-2.487088
-2.484969
-2.479551
-2.470811
-2.458756
-2.443450
-2.425041
-2.403787
-2.380056
-2.354326
-2.327165
-2.299207
-2.271121
-2.243579
-2.217225
-2.192658
-2.170405
-2.150914
-2.134536
-2.121520
-2.111997
-2.105960
-2.102945
-2.103115
-2.106225
-2.111947
-2.119884
-2.129580
-2.140534
-2.152216
-2.164081
-2.175587
-2.186213
-2.195477
-2.202951
-2.208273
-2.211162
-2.211419
-2.209044
-2.203799
-2.195763
-2.185102
-2.172063
-2.156957
-2.140142
-2.122009
-2.102967
-2.083424
-2.063780
-2.044418
-2.025688
-2.007905
-1.991338
-1.976203
-1.962659
-1.950805
-1.940672
-1.932221
-1.925346
-1.919869
-1.915548
-1.912077
-1.909100
-1.906221
-1.903022
-1.899082
-1.893998
-1.887411
-1.879026
-1.868629
-1.856098
-1.841409
-1.824637
-1.805941
-1.785555
-1.763773
-1.740923
-1.717357
-1.693422
-1.669455
-1.645763
-1.622615
-1.600238
-1.578811
-1.558461
-1.539268
-1.521266
-1.504446
-1.488765
-1.474148
-1.460499
-1.447709
-1.435664
-1.424252
-1.413372
-1.402932
-1.392854
-1.382759
10.192575
10.192457
10.192137
10.191650
10.191042
10.190356
10.189630
10.188894
10.188170
10.187474
10.186818
10.186208
10.185652
10.185153
10.184714
10.184337
10.184024
10.183777
10.183596
10.183481
10.183431
10.183444
10.183515
10.183636
10.183794
10.183970
10.184133
10.184238
10.184215
10.183962
10.183324
10.182063
10.179819
10.176028
10.169800
10.159694
10.143298
10.116415
10.071336
9.992899
9.848280
9.555317
8.885821
7.087555
0.466078
-2.463172
-3.094851
-3.244370
-3.295081
-3.312759
-3.301572
-3.280017
-3.218812
-3.141878
-3.067072
-2.992861
-2.915356
-2.816256
-2.671635
-2.559260
-2.550711
-2.588554
-2.692724
-2.898884
-3.175997
-3.497724
-3.846200
-4.177051
-4.403362
-4.446354
-4.284871
-4.007210
-3.688394
-3.377150
-3.093406
-2.843888
-2.628465
-2.446011
-2.295989
-2.177893
-2.090238
-2.030635
-1.996667
-1.985629
-1.993990
-2.017837
-2.053248
-2.096474
-2.144197
-2.193528
-2.242010
-2.287805
-2.329683
-2.366920
-2.399255
-2.426741
-2.449627
-2.468239
-2.482908
-2.493918
-2.501477
-2.505706
-2.506643
-2.504261
-2.498487
-2.489237
-2.476455
-2.460149
-2.440433
-2.417547
-2.391871
-2.363925
-2.334341
-2.303834
-2.273163
-2.243088
-2.214341
-2.187591
-2.163433
-2.142366
-2.124785
-2.110970
-2.101082
-2.094842
-2.092136
-2.092961
-2.097052
-2.104046
-2.113501
-2.124910
-2.137713
-2.151318
-2.165116
-2.178501
-2.190889
-2.201740
-2.210574
-2.216989
-2.220671
-2.221399
-2.219219
-2.213858
-2.205400
-2.194041
-2.180069
-2.163841
-2.145766
-2.126284
-2.105851
-2.084920
-2.063933
-2.043310
-2.023436
-2.004655
-1.987265
-1.971505
-1.957553
-1.945521
-1.935449
-1.927300
-1.920963
-1.916244
-1.912879
-1.910530
-1.908797
-1.907233
-1.905360
-1.902692
-1.898765
-1.893162
-1.885540
-1.875649
-1.863353
-1.848628
-1.831565
-1.812356
-1.791278
-1.768670
-1.744914
-1.720408
-1.695547
-1.670706
-1.646225
-1.622398
-1.599469
-1.577626
-1.557001
-1.537672
-1.519663
-1.502955
-1.487486
-1.473163
-1.459869
-1.447473
-1.435838
-1.424836
-1.414352
-1.404290
-1.394562
-1.384692
10.190599
10.190508
10.190259
10.189872
10.189378
10.188808
10.188191
10.187551
10.186908
10.186277
10.185670
10.185095
10.184558
10.184064
10.183616
10.183218
10.182870
10.182574
10.182330
10.182137
10.181994
10.181896
10.181837
10.181810
10.181799
10.181787
10.181743
10.181628
10.181380
10.180914
10.180102
10.178756
10.176593
10.173177
10.167825
10.159437
10.146178
10.124856
10.089640
10.026782
9.904590
9.639019
8.955217
6.484210
-1.609279
-3.425137
-3.301466
-3.342206
-3.435340
-3.599822
-3.830892
-4.147025
-4.114897
-4.000789
-3.897264
-3.773175
-3.602031
-3.375116
-3.115817
-2.893194
-2.760436
-2.719755
-2.784970
-2.964103
-3.243625
-3.593576
-3.978013
-4.347260
-4.605314
-4.632086
-4.414086
-4.083839
-3.729326
-3.397345
-3.101693
-2.841660
-2.614525
-2.419917
-2.259264
-2.133517
-2.041173
-1.979164
-1.945266
-1.937666
-1.952150
-1.983961
-2.028435
-2.081047
-2.138007
-2.195967
-2.251814
-2.303448
-2.349611
-2.389607
-2.423445
-2.451477
-2.474276
-2.492443
-2.506526
-2.516957
-2.524024
-2.527871
-2.528514
-2.525867
-2.519780
-2.510080
-2.496621
-2.479336
-2.458277
-2.433657
-2.405861
-2.375449
-2.343130
-2.309716
-2.276078
-2.243090
-2.211585
-2.182321
-2.155963
-2.133071
-2.114088
-2.099329
-2.088996
-2.082515
-2.080130
-2.081678
-2.086865
-2.095285
-2.106445
-2.119777
-2.134659
-2.150427
-2.166401
-2.181900
-2.196269
-2.208900
-2.219256
-2.226886
-2.231447
-2.232707
-2.230658
-2.225137
-2.216161
-2.203972
-2.188911
-2.171391
-2.151879
-2.130871
-2.108873
-2.086389
-2.063905
-2.041878
-2.020730
-2.000840
-1.982531
-1.966070
-1.951655
-1.939413
-1.929396
-1.921570
-1.915819
-1.911939
-1.909639
-1.908547
-1.908217
-1.908144
-1.907781
-1.906572
-1.903975
-1.899507
-1.892766
-1.883465
-1.871447
-1.856691
-1.839312
-1.819537
-1.797695
-1.774182
-1.749437
-1.723914
-1.698059
-1.672288
-1.646975
-1.622443
-1.598949
-1.576694
-1.555811
-1.536374
-1.518400
-1.501856
-1.486664
-1.472710
-1.459855
-1.447944
-1.436822
-1.426341
-1.416381
-1.406848
-1.397672
-1.388348
10.188791
10.188719
10.188517
10.188201
10.187791
10.187308
10.186776
10.186212
10.185635
10.185058
10.184491
10.183943
10.183421
10.182929
10.182470
10.182049
10.181665
10.181321
10.181015
10.180746
10.180512
10.180309
10.180130
10.179967
10.179808
10.179634
10.179425
10.179147
10.178759
10.178204
10.177404
10.176249
10.174586
10.172194
10.168736
10.163688
10.156188
10.144730
10.125728
10.092321
10.028844
9.897257
9.603314
9.213117
3.801919
-3.425137
-3.301466
-3.342205
-3.435340
-3.599821
-4.387640
-4.944388
-4.636340
-4.573443
-4.605045
-4.589725
-4.458628
-4.189065
-3.829214
-3.467425
-3.182627
-3.020058
-3.002130
-3.127288
-3.372494
-3.704977
-4.083503
-4.443244
-4.669321
-4.647550
-4.409739
-4.069188
-3.716267
-3.393950
-3.107442
-2.849874
-2.618380
-2.415648
-2.245811
-2.110943
-2.010256
-1.942071
-1.905676
-1.900482
-1.918943
-1.955757
-2.006916
-2.067697
-2.133999
-2.201688
-2.265892
-2.324178
-2.375294
-2.418243
-2.453500
-2.481730
-2.503956
-2.521131
-2.534100
-2.543487
-2.549679
-2.552849
-2.552979
-2.549913
-2.543412
-2.533203
-2.519042
-2.500768
-2.478357
-2.451969
-2.421973
-2.388953
-2.353680
-2.317073
-2.280130
-2.243864
-2.209238
-2.177118
-2.148257
-2.123287
-2.102699
-2.086826
-2.075865
-2.069143
-2.067057
-2.069375
-2.075754
-2.085740
-2.098780
-2.114241
-2.131428
-2.149601
-2.167995
-2.185848
-2.202421
-2.217028
-2.229063
-2.238023
-2.243530
-2.245342
-2.243377
-2.237624
-2.228011
-2.214843
-2.198523
-2.179534
-2.158406
-2.135697
-2.111968
-2.087775
-2.063646
-2.040082
-2.017541
-1.996434
-1.977115
-1.959878
-1.944944
-1.932459
-1.922485
-1.914995
-1.909868
-1.906890
-1.905747
-1.906032
-1.907250
-1.908834
-1.910161
-1.910591
-1.909498
-1.906317
-1.900583
-1.891962
-1.880276
-1.865511
-1.847806
-1.827436
-1.804788
-1.780322
-1.754543
-1.727965
-1.701086
-1.674370
-1.648224
-1.622992
-1.598952
-1.576309
-1.555199
-1.535692
-1.517795
-1.501462
-1.486599
-1.473072
-1.460721
-1.449369
-1.438841
-1.428978
-1.419662
-1.410836
-1.402517
-1.394476
10.187118
10.187058
10.186890
10.186625
10.186276
10.185859
10.185390
10.184887
10.184362
10.183827
10.183293
10.182766
10.182253
10.181760
10.181288
10.180842
10.180422
10.180029
10.179662
10.179320
10.179000
10.178698
10.178407
10.178121
10.177828
10.177517
10.177171
10.176773
10.176301
10.175734
10.175051
10.174237
10.173291
10.172235
10.171134
10.170117
10.169386
10.169186
10.169719
10.170896
10.171398
10.167914
10.158080
10.161277
10.161278
0.000000
0.000000
0.000000
0.000000
0.000000
-4.913340
-4.913341
-4.847904
-4.889195
-4.986926
-5.163513
-5.196395
-4.985582
-4.584891
-4.114378
-3.690903
-3.395114
-3.266236
-3.305723
-3.486696
-3.766930
-4.093475
-4.390180
-4.549548
-4.486942
-4.255788
-3.946131
-3.634994
-3.354127
-3.097925
-2.855748
-2.627894
-2.422302
-2.247187
-2.107076
-2.002581
-1.932154
-1.894193
-1.883981
-1.896662
-1.932281
-1.985939
-2.053661
-2.130713
-2.209490
-2.283765
-2.349739
-2.406588
-2.452473
-2.489216
-2.517365
-2.538681
-2.554443
-2.565899
-2.573908
-2.578979
-2.581315
-2.580845
-2.577310
-2.570341
-2.559531
-2.544511
-2.525027
-2.500994
-2.472551
-2.440081
-2.404211
-2.365777
-2.325773
-2.285302
-2.245499
-2.207461
-2.172179
-2.140520
-2.113219
-2.090846
-2.073735
-2.061868
-2.055000
-2.053233
-2.056360
-2.064004
-2.075659
-2.090712
-2.108464
-2.128143
-2.148927
-2.169961
-2.190386
-2.209370
-2.226134
-2.239993
-2.250380
-2.256873
-2.259210
-2.257303
-2.251209
-2.240817
-2.226506
-2.208756
-2.188126
-2.165216
-2.140651
-2.115049
-2.089015
-2.063124
-2.037913
-2.013878
-1.991462
-1.971052
-1.952967
-1.937455
-1.924683
-1.914728
-1.907570
-1.903088
-1.901055
-1.901137
-1.902892
-1.905777
-1.909159
-1.912336
-1.914574
-1.915150
-1.913409
-1.908811
-1.900972
-1.889692
-1.874962
-1.856954
-1.836000
-1.812551
-1.787139
-1.760339
-1.732730
-1.704865
-1.677251
-1.650326
-1.624457
-1.599933
-1.576963
-1.555683
-1.536156
-1.518380
-1.502296
-1.487795
-1.474724
-1.462904
-1.452139
-1.442236
-1.433028
-1.424408
-1.416376
-1.409108
-1.402943
10.185556
10.185505
10.185362
10.185133
10.184828
10.184460
10.184041
10.183583
10.183099
10.182597
10.182087
10.181575
10.181067
10.180568
10.180082
10.179609
10.179152
10.178711
10.178285
10.177873
10.177470
10.177075
10.176680
10.176280
10.175867
10.175432
10.174968
10.174469
10.173934
10.173375
10.172824
10.172352
10.172096
10.172299
10.173385
10.176054
10.181419
10.191159
10.208213
10.236651
10.281381
10.347589
10.436930
10.539238
10.539239
0.000000
0.000000
0.000000
0.000000
0.000000
-4.976055
-4.976056
-4.988903
-5.079958
-5.274100
-5.601847
-5.784802
-5.641316
-5.219846
-4.666772
-4.128558
-3.711094
-3.469201
-3.410537
-3.507294
-3.710416
-3.957613
-4.171283
-4.265932
-4.188382
-3.987078
-3.738946
-3.501338
-3.285986
-3.074463
-2.855752
-2.636925
-2.433007
-2.256488
-2.113971
-2.007056
-1.934128
-1.891550
-1.879056
-1.891462
-1.927018
-1.983389
-2.056893
-2.140705
-2.226019
-2.306832
-2.379710
-2.440757
-2.490226
-2.529120
-2.556803
-2.577151
-2.591187
-2.600904
-2.607389
-2.611317
-2.612960
-2.612160
-2.608517
-2.601470
-2.590396
-2.574729
-2.554062
-2.528224
-2.497339
-2.461843
-2.422461
-2.380167
-2.336122
-2.291607
-2.247919
-2.206248
-2.167622
-2.132954
-2.103089
-2.078755
-2.060343
-2.047523
-2.040365
-2.038921
-2.042921
-2.051918
-2.065341
-2.082517
-2.102681
-2.124988
-2.148531
-2.172362
-2.195520
-2.217066
-2.236121
-2.251906
-2.263780
-2.271272
-2.274092
-2.272135
-2.265556
-2.254234
-2.238626
-2.219296
-2.196884
-2.172071
-2.145544
-2.117979
-2.090027
-2.062302
-2.035380
-2.009788
-1.986000
-1.964435
-1.945441
-1.929293
-1.916181
-1.906201
-1.899346
-1.895498
-1.894421
-1.895761
-1.899043
-1.903676
-1.908961
-1.914113
-1.918297
-1.920687
-1.920526
-1.917191
-1.910244
-1.899460
-1.884843
-1.866603
-1.845132
-1.820953
-1.794677
-1.766953
-1.738423
-1.709695
-1.681313
-1.653746
-1.627374
-1.602493
-1.579313
-1.557962
-1.538496
-1.520901
-1.505105
-1.490984
-1.478371
-1.467068
-1.456860
-1.447537
-1.438918
-1.430900
-1.423522
-1.417089
-1.412476
10.184089
10.184044
10.183918
10.183716
10.183444
10.183112
10.182730
10.182307
10.181852
10.181375
10.180882
10.180379
10.179872
10.179365
10.178860
10.178361
10.177867
10.177378
10.176895
10.176414
10.175934
10.175450
10.174957
10.174451
10.173925
10.173374
10.172797
10.172197
10.171587
10.171003
10.170514
10.170250
10.170438
10.171473
10.174014
10.179136
10.188545
10.204839
10.231697
10.274690
10.340381
10.432576
10.545081
10.649794
10.649795
0.000000
0.000000
0.000000
0.000000
0.000000
-5.031089
-5.031089
-5.089604
-5.240514
-5.516362
-5.935950
-6.264523
-6.114022
-5.645166
-5.017009
-4.387062
-3.872015
-3.535555
-3.389701
-3.405652
-3.530186
-3.698304
-3.839837
-3.892564
-3.829387
-3.678035
-3.508351
-3.360248
-3.217275
-3.051084
-2.856085
-2.649540
-2.452390
-2.279019
-2.136668
-2.027716
-1.951676
-1.906439
-1.889664
-1.903859
-1.940324
-1.997433
-2.071505
-2.156626
-2.246084
-2.333642
-2.412720
-2.478123
-2.529634
-2.567911
-2.596792
-2.617271
-2.629277
-2.637325
-2.642255
-2.645049
-2.646212
-2.645459
-2.642289
-2.635927
-2.625466
-2.610047
-2.588987
-2.561902
-2.528796
-2.490107
-2.446689
-2.399756
-2.350772
-2.301311
-2.252891
-2.206858
-2.164355
-2.126381
-2.093835
-2.067557
-2.047911
-2.033266
-2.025558
-2.024365
-2.029244
-2.039648
-2.054924
-2.074323
-2.097009
-2.122061
-2.148486
-2.175238
-2.201247
-2.225459
-2.246881
-2.264630
-2.277984
-2.286425
-2.289651
-2.287555
-2.280251
-2.267814
-2.250742
-2.229689
-2.205387
-2.178596
-2.150067
-2.120526
-2.090658
-2.061111
-2.032486
-2.005338
-1.980169
-1.957425
-1.937485
-1.920652
-1.907142
-1.897075
-1.890462
-1.887194
-1.887036
-1.889617
-1.894428
-1.900830
-1.908058
-1.915242
-1.921446
-1.925733
-1.927240
-1.925260
-1.919297
-1.909107
-1.894708
-1.876355
-1.854504
-1.829754
-1.802793
-1.774343
-1.745109
-1.715746
-1.686831
-1.658854
-1.632204
-1.607178
-1.583977
-1.562721
-1.543451
-1.526141
-1.510703
-1.496998
-1.484843
-1.474023
-1.464303
-1.455448
-1.447248
-1.439563
-1.432393
-1.426012
-1.421292
10.182706
10.182665
10.182552
10.182368
10.182120
10.181815
10.181459
10.181061
10.180628
10.180168
10.179686
10.179187
10.178677
10.178158
10.177634
10.177106
10.176574
10.176040
10.175500
10.174955
10.174400
10.173832
10.173247
10.172639
10.172004
10.171340
10.170646
10.169929
10.169211
10.168533
10.167977
10.167692
10.167933
10.169137
10.172029
10.177793
10.188312
10.206485
10.236514
10.283869
10.353990
10.448954
10.559958
10.657991
10.657991
0.000000
0.000000
0.000000
0.000000
0.000000
-5.054492
-5.054493
-5.137239
-5.317154
-5.613887
-6.021760
-6.386174
-6.314310
-5.778811
-5.098248
-4.410867
-3.834358
-3.437954
-3.237201
-3.200568
-3.270742
-3.383594
-3.479363
-3.514380
-3.477387
-3.398814
-3.323580
-3.258549
-3.171096
-3.034920
-2.858936
-2.668038
-2.483944
-2.319746
-2.181849
-2.072958
-1.993898
-1.944259
-1.922305
-1.933799
-1.968943
-2.024481
-2.096468
-2.179741
-2.268393
-2.356244
-2.437466
-2.507936
-2.565190
-2.607301
-2.635615
-2.652861
-2.665369
-2.673016
-2.676520
-2.678177
-2.679104
-2.678599
-2.676335
-2.671357
-2.662442
-2.648396
-2.628174
-2.601057
-2.566803
-2.525726
-2.478707
-2.427129
-2.372741
-2.317478
-2.263262
-2.211826
-2.164604
-2.122708
-2.086981
-2.058232
-2.035800
-2.020226
-2.011892
-2.010667
-2.016153
-2.027764
-2.044778
-2.066370
-2.091617
-2.119504
-2.148936
-2.178752
-2.207755
-2.234755
-2.258622
-2.278352
-2.293132
-2.302398
-2.305875
-2.303564
-2.295388
-2.281593
-2.262815
-2.239840
-2.213508
-2.184662
-2.154109