# vtk DataFile Version 3.0
Scalar Field
ASCII
DATASET RECTILINEAR_GRID
DIMENSIONS 200 50 1
X_COORDINATES 200 double
0.050000 0.150000 0.250000 0.350000 0.450000 0.550000 0.650000 0.750000 0.850000 0.950000 1.050000 1.150000 1.250000 1.350000 1.450000 1.550000 1.650000 1.750000 1.850000 1.950000 2.050000 2.150000 2.250000 2.350000 2.450000 2.550000 2.650000 2.750000 2.850000 2.950000 3.050000 3.150000 3.250000 3.350000 3.450000 3.550000 3.650000 3.750000 3.850000 3.950000 4.050000 4.150000 4.250000 4.350000 4.450000 4.550000 4.650000 4.750000 4.850000 4.950000 5.050000 5.150000 5.250000 5.350000 5.450000 5.550000 5.650000 5.750000 5.850000 5.950000 6.050000 6.150000 6.250000 6.350000 6.450000 6.550000 6.650000 6.750000 6.850000 6.950000 7.050000 7.150000 7.250000 7.350000 7.450000 7.550000 7.650000 7.750000 7.850000 7.950000 8.050000 8.150000 8.250000 8.350000 8.450000 8.550000 8.650000 8.750000 8.850000 8.950000 9.050000 9.150000 9.250000 9.350000 9.450000 9.550000 9.650000 9.750000 9.850000 9.950000 10.050000 10.150000 10.250000 10.350000 10.450000 10.550000 10.650000 10.750000 10.850000 10.950000 11.050000 11.150000 11.250000 11.350000 11.450000 11.550000 11.650000 11.750000 11.850000 11.950000 12.050000 12.150000 12.250000 12.350000 12.450000 12.550000 12.650000 12.750000 12.850000 12.950000 13.050000 13.150000 13.250000 13.350000 13.450000 13.550000 13.650000 13.750000 13.850000 13.950000 14.050000 14.150000 14.250000 14.350000 14.450000 14.550000 14.650000 14.750000 14.850000 14.950000 15.050000 15.150000 15.250000 15.350000 15.450000 15.550000 15.650000 15.750000 15.850000 15.950000 16.050000 16.150000 16.250000 16.350000 16.450000 16.550000 16.650000 16.750000 16.850000 16.950000 17.050000 17.150000 17.250000 17.350000 17.450000 17.550000 17.650000 17.750000 17.850000 17.950000 18.050000 18.150000 18.250000 18.350000 18.450000 18.550000 18.650000 18.750000 18.850000 18.950000 19.050000 19.150000 19.250000 19.350000 19.450000 19.550000 19.650000 19.750000 19.850000 19.950000 
Y_COORDINATES 50 double
0.050000 0.150000 0.250000 0.350000 0.450000 0.550000 0.650000 0.750000 0.850000 0.950000 1.050000 1.150000 1.250000 1.350000 1.450000 1.550000 1.650000 1.750000 1.850000 1.950000 2.050000 2.150000 2.250000 2.350000 2.450000 2.550000 2.650000 2.750000 2.850000 2.950000 3.050000 3.150000 3.250000 3.350000 3.450000 3.550000 3.650000 3.750000 3.850000 3.950000 4.050000 4.150000 4.250000 4.350000 4.450000 4.550000 4.650000 4.750000 4.850000 4.950000 
Z_COORDINATES 1 double
0.0
POINT_DATA 10000
SCALARS Skalarfeld double 1
LOOKUP_TABLE default
10.454051
10.441639
10.434602
10.429968
10.426597
10.423983
10.421874
10.420131
10.418670
10.417437
10.416398
10.415529
10.414816
10.414248
10.413820
10.413529
10.413374
10.413359
10.413490
10.413773
10.414219
10.414842
10.415658
10.416689
10.417959
10.419499
10.421346
10.423545
10.426153
10.429238
10.432885
10.437199
10.442306
10.448358
10.455521
10.463961
10.473798
10.485017
10.497310
10.509838
10.520964
10.526771
10.528145
10.545857
10.545858
0.000000
0.000000
0.000000
0.000000
0.000000
-2.348137
-2.348137
-2.352817
-2.359365
-2.364726
-2.369347
-2.374006
-2.379505
-2.386634
-2.395752
-2.407708
-2.423657
-2.444608
-2.472617
-2.508373
-2.550622
-2.596644
-2.641695
-2.679593
-2.704054
-2.710309
-2.696250
-2.663888
-2.619540
-2.567572
-2.512602
-2.458478
-2.407870
-2.362328
-2.322539
-2.289950
-2.266752
-2.252843
-2.248119
-2.252304
-2.264877
-2.285040
-2.311740
-2.343721
-2.379609
-2.418002
-2.457558
-2.497067
-2.535508
-2.572071
-2.606158
-2.637370
-2.665475
-2.690369
-2.712036
-2.730514
-2.745854
-2.758102
-2.767267
-2.773310
-2.776132
-2.775573
-2.771416
-2.763426
-2.751292
-2.734801
-2.713817
-2.688216
-2.657888
-2.622821
-2.583112
-2.538972
-2.490728
-2.438821
-2.383802
-2.326309
-2.267045
-2.206738
-2.146111
-2.085856
-2.026618
-1.968995
-1.913505
-1.860551
-1.810409
-1.763250
-1.719197
-1.678293
-1.640448
-1.605442
-1.573006
-1.542949
-1.514995
-1.488778
-1.463814
-1.439932
-1.417009
-1.394600
-1.372463
-1.351046
-1.330432
-1.309374
-1.289594
-1.270994
-1.253801
-1.238387
-1.225190
-1.214667
-1.207260
-1.203366
-1.203311
-1.207333
-1.215564
-1.228028
-1.244643
-1.265223
-1.289496
-1.317114
-1.347673
-1.380728
-1.415810
-1.452441
-1.490142
-1.528449
-1.566916
-1.605126
-1.642690
-1.679254
-1.714499
-1.748145
-1.779947
-1.809703
-1.837247
-1.862454
-1.885235
-1.905538
-1.923348
-1.938678
-1.951571
-1.962096
-1.970337
-1.976395
-1.980378
-1.982396
-1.982555
-1.980952
-1.977671
-1.972775
-1.966219
-1.957720
-1.947414
-1.935471
-1.922223
-1.908372
-1.893642
10.439953
10.436293
10.432160
10.428634
10.425749
10.423380
10.421409
10.419750
10.418344
10.417149
10.416136
10.415286
10.414585
10.414025
10.413601
10.413311
10.413154
10.413133
10.413254
10.413524
10.413952
10.414552
10.415339
10.416332
10.417555
10.419034
10.420805
10.422907
10.425389
10.428311
10.431745
10.435781
10.440525
10.446103
10.452656
10.460328
10.469234
10.479399
10.490638
10.502363
10.513205
10.521243
10.532666
10.557826
10.557827
0.000000
0.000000
0.000000
0.000000
0.000000
-2.350436
-2.350437
-2.355155
-2.361108
-2.365362
-2.369227
-2.373216
-2.378088
-2.384663
-2.392515
-2.402677
-2.417315
-2.438291
-2.467582
-2.506099
-2.552838
-2.604561
-2.655641
-2.698794
-2.726728
-2.734113
-2.719094
-2.683838
-2.634249
-2.576007
-2.514668
-2.454756
-2.399473
-2.350843
-2.310172
-2.278424
-2.255951
-2.243047
-2.239641
-2.245399
-2.259711
-2.281683
-2.310163
-2.343811
-2.381179
-2.420815
-2.461346
-2.501558
-2.540442
-2.577215
-2.611321
-2.642407
-2.670287
-2.694900
-2.716272
-2.734471
-2.749579
-2.761658
-2.770735
-2.776777
-2.779684
-2.779287
-2.775332
-2.767645
-2.755759
-2.739585
-2.718902
-2.693527
-2.663373
-2.628425
-2.588774
-2.544629
-2.496316
-2.444277
-2.389068
-2.331345
-2.271826
-2.211257
-2.150377
-2.089878
-2.030403
-1.972565
-1.916910
-1.863855
-1.813670
-1.766486
-1.722442
-1.681626
-1.643960
-1.609187
-1.576972
-1.547195
-1.519596
-1.493817
-1.469189
-1.445696
-1.423305
-1.401243
-1.379154
-1.357775
-1.336788
-1.316090
-1.296251
-1.277466
-1.260014
-1.244277
-1.230698
-1.219749
-1.211886
-1.207525
-1.207012
-1.210599
-1.218435
-1.230556
-1.246887
-1.267247
-1.291364
-1.318887
-1.349407
-1.382472
-1.417604
-1.454316
-1.492122
-1.530550
-1.569149
-1.607495
-1.645195
-1.681891
-1.717263
-1.751028
-1.782941
-1.812797
-1.840430
-1.865715
-1.888561
-1.908919
-1.926769
-1.942129
-1.955042
-1.965575
-1.973817
-1.979867
-1.983833
-1.985824
-1.985940
-1.984262
-1.980840
-1.975654
-1.968641
-1.959891
-1.949306
-1.936903
-1.922757
-1.906900
-1.885161
10.432601
10.431252
10.428925
10.426477
10.424216
10.422218
10.420478
10.418968
10.417662
10.416536
10.415571
10.414752
10.414072
10.413521
10.413098
10.412800
10.412629
10.412585
10.412674
10.412902
10.413278
10.413811
10.414514
10.415403
10.416493
10.417805
10.419362
10.421189
10.423314
10.425769
10.428587
10.431802
10.435451
10.439563
10.444162
10.449253
10.454820
10.460823
10.467244
10.474272
10.482940
10.497348
10.528832
10.585396
10.585397
0.000000
0.000000
0.000000
0.000000
0.000000
-2.349963
-2.349963
-2.356474
-2.362233
-2.364971
-2.368412
-2.372851
-2.378278
-2.383025
-2.386028
-2.391265
-2.403094
-2.424167
-2.457207
-2.503808
-2.562796
-2.629461
-2.695676
-2.751268
-2.786492
-2.794741
-2.774347
-2.729185
-2.665451
-2.591851
-2.516034
-2.443840
-2.379218
-2.324596
-2.281477
-2.250294
-2.229803
-2.219907
-2.220266
-2.230281
-2.249075
-2.275497
-2.308175
-2.345585
-2.386151
-2.428345
-2.470772
-2.512240
-2.551800
-2.588758
-2.622659
-2.653259
-2.680476
-2.704344
-2.724968
-2.742484
-2.757025
-2.768694
-2.777541
-2.783546
-2.786606
-2.786547
-2.782841
-2.775172
-2.763660
-2.747927
-2.727685
-2.702712
-2.672871
-2.638123
-2.598551
-2.554363
-2.505885
-2.453563
-2.397966
-2.339783
-2.279768
-2.218700
-2.157349
-2.096418
-2.036520
-1.978312
-1.922383
-1.869179
-1.818967
-1.771776
-1.727801
-1.687197
-1.649894
-1.615540
-1.583724
-1.554503
-1.527630
-1.502664
-1.478242
-1.455400
-1.433416
-1.411753
-1.390320
-1.369226
-1.348373
-1.327824
-1.307876
-1.288795
-1.270904
-1.254608
-1.240374
-1.228699
-1.220069
-1.214932
-1.213664
-1.216549
-1.223759
-1.235346
-1.251247
-1.271286
-1.295187
-1.322594
-1.353086
-1.386198
-1.421438
-1.458305
-1.496300
-1.534939
-1.573761
-1.612335
-1.650261
-1.687178
-1.722761
-1.756726
-1.788826
-1.818856
-1.846649
-1.872079
-1.895057
-1.915533
-1.933489
-1.948942
-1.961937
-1.972542
-1.980846
-1.986948
-1.990954
-1.992966
-1.993076
-1.991350
-1.987821
-1.982470
-1.975244
-1.966082
-1.954837
-1.941313
-1.925194
-1.905882
-1.878170
10.427824
10.427193
10.425814
10.424135
10.422421
10.420796
10.419310
10.417977
10.416793
10.415752
10.414846
10.414067
10.413409
10.412869
10.412444
10.412133
10.411938
10.411860
10.411903
10.412071
10.412371
10.412809
10.413394
10.414135
10.415040
10.416119
10.417378
10.418824
10.420453
10.422257
10.424212
10.426270
10.428351
10.430326
10.431992
10.433056
10.433103
10.431623
10.428140
10.422745
10.417694
10.421401
10.453944
10.536984
10.536984
0.000000
0.000000
0.000000
0.000000
0.000000
-2.341758
-2.341758
-2.349800
-2.356571
-2.361786
-2.367848
-2.376251
-2.384923
-2.386211
-2.375420
-2.368921
-2.375938
-2.397230
-2.437137
-2.498980
-2.580937
-2.675175
-2.768702
-2.845927
-2.892703
-2.900411
-2.868063
-2.802039
-2.713052
-2.614267
-2.516195
-2.426147
-2.348582
-2.285815
-2.238783
-2.207670
-2.190302
-2.185081
-2.191193
-2.207589
-2.232968
-2.265805
-2.304413
-2.347031
-2.391930
-2.437505
-2.482358
-2.525354
-2.565647
-2.602677
-2.636144
-2.665957
-2.692184
-2.714991
-2.734594
-2.751217
-2.765059
-2.776266
-2.784913
-2.790987
-2.794366
-2.794314
-2.790879
-2.783941
-2.773151
-2.758132
-2.738555
-2.714152
-2.684743
-2.650259
-2.610780
-2.566521
-2.517820
-2.465123
-2.409015
-2.350240
-2.289600
-2.227909
-2.165993
-2.104574
-2.044195
-1.985583
-1.929384
-1.876070
-1.825925
-1.778754
-1.734952
-1.694727
-1.658056
-1.624273
-1.592762
-1.564222
-1.538068
-1.513684
-1.490434
-1.468408
-1.447152
-1.426254
-1.405536
-1.384938
-1.364411
-1.344027
-1.323998
-1.304602
-1.286195
-1.269214
-1.254159
-1.241561
-1.231951
-1.225821
-1.223588
-1.225574
-1.231983
-1.242891
-1.258246
-1.277878
-1.301507
-1.328766
-1.359218
-1.392382
-1.427747
-1.464794
-1.503009
-1.541893
-1.580974
-1.619811
-1.658000
-1.695173
-1.731004
-1.765205
-1.797529
-1.827772
-1.855765
-1.881384
-1.904541
-1.925185
-1.943300
-1.958905
-1.972044
-1.982787
-1.991222
-1.997447
-2.001566
-2.003675
-2.003858
-2.002169
-1.998628
-1.993203
-1.985812
-1.976310
-1.964455
-1.949874
-1.931988
-1.909882
-1.877248
10.424239
10.423882
10.423006
10.421833
10.420539
10.419238
10.417994
10.416838
10.415784
10.414836
10.413996
10.413261
10.412630
10.412102
10.411675
10.411351
10.411128
10.411011
10.411000
10.411100
10.411313
10.411644
10.412096
10.412672
10.413373
10.414195
10.415133
10.416168
10.417270
10.418387
10.419435
10.420279
10.420710
10.420410
10.418891
10.415425
10.408925
10.397803
10.379810
10.352026
10.311564
10.258940
10.208978
10.212603
10.212604
0.000000
0.000000
0.000000
0.000000
0.000000
-2.323105
-2.323105
-2.334716
-2.346159
-2.356230
-2.368997
-2.387742
-2.409436
-2.407960
-2.358020
-2.327257
-2.330125
-2.351128
-2.400325
-2.485953
-2.604586
-2.742752
-2.879359
-2.989854
-3.052962
-3.057463
-3.003973
-2.902936
-2.775791
-2.641822
-2.514655
-2.402616
-2.309959
-2.238156
-2.187000
-2.155383
-2.141931
-2.142354
-2.155328
-2.179271
-2.212381
-2.252694
-2.298161
-2.346760
-2.396597
-2.445992
-2.493553
-2.538218
-2.579265
-2.616294
-2.649185
-2.678035
-2.703090
-2.724679
-2.743151
-2.758832
-2.771989
-2.782810
-2.791386
-2.797711
-2.801101
-2.801492
-2.798922
-2.792955
-2.783146
-2.769065
-2.750328
-2.726624
-2.697727
-2.663530
-2.624124
-2.579750
-2.530768
-2.477626
-2.420922
-2.361484
-2.300163
-2.237804
-2.175310
-2.113448
-2.052577
-1.993623
-1.937248
-1.883965
-1.834192
-1.786872
-1.743309
-1.703473
-1.667190
-1.634025
-1.603571
-1.575914
-1.550639
-1.527217
-1.505157
-1.484193
-1.463931
-1.444000
-1.424154
-1.404247
-1.384216
-1.364110
-1.344100
-1.324464
-1.305577
-1.287905
-1.271987
-1.258398
-1.247720
-1.240493
-1.237190
-1.238175
-1.243690
-1.253836
-1.268578
-1.287746
-1.311056
-1.338128
-1.368506
-1.401690
-1.437147
-1.474339
-1.512734
-1.551821
-1.591117
-1.630173
-1.668578
-1.705964
-1.742003
-1.776406
-1.808929
-1.839366
-1.867553
-1.893365
-1.916717
-1.937558
-1.955877
-1.971690
-1.985044
-1.996009
-2.004672
-2.011130
-2.015482
-2.017820
-2.018221
-2.016730
-2.013354
-2.008045
-2.000690
-1.991091
-1.978929
-1.963714
-1.944712
-1.920811
-1.884396
10.421320
10.421092
10.420498
10.419651
10.418665
10.417626
10.416591
10.415599
10.414670
10.413816
10.413043
10.412354
10.411752
10.411236
10.410808
10.410468
10.410218
10.410058
10.409991
10.410019
10.410141
10.410360
10.410676
10.411084
10.411580
10.412151
10.412777
10.413424
10.414038
10.414533
10.414776
10.414561
10.413574
10.411327
10.407069
10.399627
10.387141
10.366596
10.332905
10.277016
10.181575
10.010172
9.680499
9.293546
3.941922
-3.132224
-2.971273
-2.954562
-2.938491
-2.864913
-2.499749
-2.305366
-2.317524
-2.332978
-2.349482
-2.371296
-2.409200
-2.475802
-2.494305
-2.331205
-2.249866
-2.265430
-2.280929
-2.337940
-2.457251
-2.629758
-2.832561
-3.032612
-3.191374
-3.276076
-3.273263
-3.183198
-3.029716
-2.850372
-2.671975
-2.510560
-2.374250
-2.265955
-2.185437
-2.130768
-2.099192
-2.089533
-2.095785
-2.115874
-2.147663
-2.188829
-2.236946
-2.289589
-2.344458
-2.399480
-2.452894
-2.503300
-2.549703
-2.591504
-2.628467
-2.660666
-2.688406
-2.712136
-2.732374
-2.749627
-2.764339
-2.776852
-2.787383
-2.796021
-2.802514
-2.806185
-2.807528
-2.806077
-2.801312
-2.792698
-2.779732
-2.761969
-2.739051
-2.710712
-2.676782
-2.637400
-2.592843
-2.543507
-2.489850
-2.432467
-2.372330
-2.310314
-2.247308
-2.184321
-2.122255
-2.060755
-2.001575
-1.945168
-1.891881
-1.841965
-1.795283
-1.752268
-1.713006
-1.677349
-1.644994
-1.615620
-1.589027
-1.564836
-1.542578
-1.521786
-1.502064
-1.482999
-1.464215
-1.445413
-1.426393
-1.407052
-1.387405
-1.367596
-1.347891
-1.328676
-1.310441
-1.293760
-1.279256
-1.267563
-1.259279
-1.254931
-1.254933
-1.259565
-1.268956
-1.283083
-1.301779
-1.324749
-1.351597
-1.381849
-1.414979
-1.450436
-1.487663
-1.526114
-1.565267
-1.604631
-1.643756
-1.682230
-1.719685
-1.755796
-1.790278
-1.822890
-1.853432
-1.881741
-1.907698
-1.931218
-1.952256
-1.970800
-1.986869
-2.000509
-2.011792
-2.020801
-2.027630
-2.032377
-2.035127
-2.035949
-2.034882
-2.031923
-2.027012
-2.020016
-2.010709
-1.998733
-1.983557
-1.964399
-1.940120
-1.902685
10.418826
10.418667
10.418242
10.417611
10.416846
10.416009
10.415148
10.414298
10.413482
10.412715
10.412007
10.411363
10.410788
10.410285
10.409854
10.409499
10.409219
10.409017
10.408892
10.408845
10.408877
10.408985
10.409165
10.409412
10.409714
10.410053
10.410400
10.410711
10.410918
10.410916
10.410546
10.409565
10.407600
10.404072
10.398072
10.388145
10.371896
10.345222
10.300676
10.223572
10.081291
9.788458
9.074333
6.596048
-1.409704
-3.132225
-2.971274
-2.954563
-2.938491
-2.864914
-2.694134
-2.482178
-2.426793
-2.412519
-2.407310
-2.411819
-2.441782
-2.516691
-2.532839
-2.265577
-2.127771
-2.210803
-2.186003
-2.240496
-2.407468
-2.653757
-2.943535
-3.229861
-3.453784
-3.563279
-3.543341
-3.393636
-3.169359
-2.926379
-2.698346
-2.501519
-2.341834
-2.219455
-2.131692
-2.074679
-2.044163
-2.037144
-2.048888
-2.075634
-2.114884
-2.163826
-2.219571
-2.279302
-2.340422
-2.400664
-2.458153
-2.511453
-2.559606
-2.602118
-2.638914
-2.670266
-2.696699
-2.718891
-2.737576
-2.753450
-2.767104
-2.778973
-2.789298
-2.798155
-2.804572
-2.809184
-2.811688
-2.811572
-2.808221
-2.800995
-2.789304
-2.772630
-2.750556
-2.722787
-2.689071
-2.649655
-2.604840
-2.555085
-2.500848
-2.442628
-2.381761
-2.319130
-2.255606
-2.192015
-2.129230
-2.067731
-2.008518
-1.952175
-1.899089
-1.849497
-1.803490
-1.761245
-1.722797
-1.688019
-1.656664
-1.628438
-1.603039
-1.580079
-1.559110
-1.539665
-1.521295
-1.503561
-1.486060
-1.468454
-1.450497
-1.432043
-1.413073
-1.393700
-1.374173
-1.354880
-1.336326
-1.319115
-1.303914
-1.291408
-1.282254
-1.277032
-1.276207
-1.280096
-1.288853
-1.302466
-1.320763
-1.343436
-1.370067
-1.400156
-1.433154
-1.468488
-1.505586
-1.543892
-1.582881
-1.622064
-1.660995
-1.699273
-1.736537
-1.772473
-1.806806
-1.839303
-1.869772
-1.898058
-1.924047
-1.947658
-1.968850
-1.987613
-2.003968
-2.017960
-2.029658
-2.039144
-2.046508
-2.051840
-2.055221
-2.056714
-2.056350
-2.054120
-2.049958
-2.043726
-2.035194
-2.024010
-2.009664
-1.991442
-1.968356
-1.933042
10.416627
10.416510
10.416191
10.415706
10.415100
10.414417
10.413696
10.412965
10.412247
10.411557
10.410907
10.410304
10.409755
10.409262
10.408828
10.408455
10.408146
10.407899
10.407717
10.407597
10.407539
10.407539
10.407592
10.407688
10.407814
10.407949
10.408061
10.408102
10.408003
10.407658
10.406911
10.405522
10.403129
10.399167
10.392746
10.382426
10.365803
10.338695
10.293428
10.214919
10.070522
9.778516
9.111816
7.321133
0.737801
-2.171455
-2.802076
-2.954685
-3.010028
-3.033568
-3.029631
-3.013948
-2.963259
-2.900212
-2.840814
-2.787873
-2.744088
-2.696617
-2.563849
-2.310977
-2.205940
-2.171368
-2.074552
-2.116347
-2.347675
-2.681213
-3.067957
-3.453684
-3.753595
-3.883208
-3.828941
-3.598717
-3.294296
-2.985396
-2.710364
-2.483397
-2.306050
-2.173977
-2.081500
-2.023261
-1.993946
-1.988936
-2.004540
-2.036714
-2.082524
-2.138561
-2.201449
-2.267954
-2.335141
-2.400533
-2.462093
-2.518291
-2.568167
-2.611303
-2.647773
-2.678052
-2.702901
-2.723249
-2.740075
-2.754298
-2.766689
-2.777801
-2.787893
-2.796825
-2.803800
-2.809423
-2.813260
-2.814682
-2.812951
-2.807314
-2.797072
-2.781609
-2.760445
-2.733284
-2.700010
-2.660568
-2.615377
-2.564931
-2.509830
-2.450861
-2.389126
-2.325631
-2.261344
-2.197179
-2.133994
-2.072506
-2.013481
-1.957492
-1.904929
-1.856036
-1.810939
-1.769721
-1.732359
-1.698718
-1.668567
-1.641611
-1.617514
-1.595881
-1.576267
-1.558205
-1.541224
-1.524867
-1.508708
-1.492381
-1.475603
-1.458193
-1.440096
-1.421394
-1.402319
-1.383249
-1.364696
-1.347286
-1.331721
-1.318733
-1.309029
-1.303240
-1.301878
-1.305294
-1.313661
-1.326970
-1.345041
-1.367546
-1.394037
-1.423987
-1.456816
-1.491930
-1.528741
-1.566688
-1.605247
-1.643942
-1.682343
-1.720069
-1.756784
-1.792195
-1.826048
-1.858127
-1.888257
-1.916293
-1.942131
-1.965698
-1.986956
-2.005898
-2.022543
-2.036937
-2.049143
-2.059240
-2.067310
-2.073435
-2.077691
-2.080130
-2.080781
-2.079629
-2.076610
-2.071592
-2.064363
-2.054608
-2.041890
-2.025628
-2.005088
-1.974126
10.414645
10.414555
10.414306
10.413922
10.413431
10.412865
10.412253
10.411619
10.410983
10.410360
10.409761
10.409194
10.408665
10.408180
10.407741
10.407351
10.407010
10.406720
10.406481
10.406290
10.406146
10.406044
10.405977
10.405937
10.405908
10.405869
10.405791
10.405632
10.405330
10.404797
10.403904
10.402460
10.400181
10.396628
10.391119
10.382551
10.369092
10.347559
10.312140
10.249142
10.126995
9.862016
9.180373
6.717865
-1.328797
-3.125174
-3.004670
-3.046842
-3.138751
-3.295771
-3.513072
-3.799855
-3.773281
-3.678161
-3.594304
-3.505669
-3.385024
-3.204565
-2.944470
-2.644580
-2.413803
-2.244996
-2.137033
-2.181983
-2.397220
-2.749787
-3.188044
-3.645660
-4.009685
-4.154270
-4.052708
-3.754380
-3.384168
-3.019660
-2.705898
-2.458387
-2.272776
-2.137625
-2.042800
-1.983025
-1.953271
-1.948802
-1.965348
-2.001213
-2.052325
-2.114439
-2.183668
-2.256380
-2.329291
-2.399686
-2.465305
-2.524414
-2.575970
-2.619592
-2.655488
-2.684351
-2.707206
-2.725266
-2.739801
-2.751993
-2.762806
-2.772930
-2.782742
-2.791491
-2.799333
-2.806208
-2.811619
-2.814837
-2.815001
-2.811217
-2.802647
-2.788563
-2.768410
-2.741839
-2.708715
-2.669106
-2.623389
-2.572129
-2.516063
-2.456114
-2.393372
-2.328937
-2.263875
-2.199181
-2.135759
-2.074391
-2.015770
-1.960430
-1.908736
-1.860910
-1.817054
-1.777183
-1.741222
-1.709007
-1.680291
-1.654772
-1.632096
-1.611862
-1.593630
-1.576935
-1.561306
-1.546280
-1.531423
-1.516355
-1.500773
-1.484472
-1.467371
-1.449526
-1.431148
-1.412602
-1.394398
-1.377175
-1.361657
-1.348611
-1.338785
-1.332853
-1.331360
-1.334684
-1.343009
-1.356323
-1.374428
-1.396968
-1.423466
-1.453357
-1.486035
-1.520881
-1.557292
-1.594704
-1.632600
-1.670521
-1.708063
-1.744875
-1.780657
-1.815150
-1.848137
-1.879433
-1.908888
-1.936380
-1.961821
-1.985150
-2.006334
-2.025369
-2.042275
-2.057093
-2.069880
-2.080705
-2.089643
-2.096766
-2.102137
-2.105803
-2.107784
-2.108066
-2.106589
-2.103238
-2.097830
-2.090105
-2.079720
-2.066255
-2.049228
-2.023846
10.412830
10.412758
10.412558
10.412244
10.411838
10.411360
10.410833
10.410277
10.409708
10.409139
10.408582
10.408045
10.407534
10.407054
10.406607
10.406198
10.405826
10.405493
10.405197
10.404938
10.404711
10.404514
10.404338
10.404174
10.404010
10.403828
10.403603
10.403303
10.402885
10.402290
10.401438
10.400218
10.398475
10.395982
10.392403
10.387207
10.379527
10.367855
10.348608
10.314914
10.251138
10.119320
9.825486
9.433216
4.052210
-3.125173
-3.004670
-3.046842
-3.138751
-3.295770
-4.014164
-4.515257
-4.226557
-4.173153
-4.194410
-4.206325
-4.140127
-3.937002
-3.605640
-3.212556
-2.846342
-2.559299
-2.394796
-2.399879
-2.579005
-2.901599
-3.320338
-3.766009
-4.123888
-4.256008
-4.114048
-3.791740
-3.396929
-3.016461
-2.697771
-2.452391
-2.269830
-2.134313
-2.036034
-1.972783
-1.937760
-1.922405
-1.935170
-1.971972
-2.026385
-2.093080
-2.167522
-2.245642
-2.323845
-2.399076
-2.468704
-2.530682
-2.583785
-2.627623
-2.662547
-2.689502
-2.709811
-2.725003
-2.736700
-2.746406
-2.755300
-2.764117
-2.773204
-2.781914
-2.790643
-2.798921
-2.806105
-2.811332
-2.813594
-2.811833
-2.805061
-2.792439
-2.773338
-2.747370
-2.714402
-2.674553
-2.628224
-2.576058
-2.518907
-2.457811
-2.393942
-2.328502
-2.262659
-2.197491
-2.133955
-2.072860
-2.014866
-1.960466
-1.909981
-1.863584
-1.821324
-1.783151
-1.748930
-1.718447
-1.691427
-1.667541
-1.646420
-1.627657
-1.610816
-1.595441
-1.581070
-1.567252
-1.553564
-1.539632
-1.525152
-1.509917
-1.493834
-1.476945
-1.459444
-1.441683
-1.424165
-1.407528
-1.392509
-1.379892
-1.370451
-1.364886
-1.363763
-1.367470
-1.376188
-1.389891
-1.408354
-1.431189
-1.457882
-1.487834
-1.520410
-1.554972
-1.590907
-1.627652
-1.664704
-1.701624
-1.738040
-1.773637
-1.808158
-1.841389
-1.873157
-1.903319
-1.931763
-1.958403
-1.983173
-2.006033
-2.026963
-2.045964
-2.063056
-2.078277
-2.091676
-2.103310
-2.113242
-2.121530
-2.128227
-2.133366
-2.136964
-2.139003
-2.139432
-2.138153
-2.135020
-2.129832
-2.122342
-2.112269
-2.099340
-2.080045
10.411149
10.411089
10.410923
10.410661
10.410315
10.409904
10.409443
10.408947
10.408431
10.407907
10.407384
10.406871
10.406372
10.405893
10.405437
10.405007
10.404604
10.404228
10.403878
10.403553
10.403249
10.402962
10.402686
10.402413
10.402131
10.401828
10.401487
10.401089
10.400613
10.400034
10.399332
10.398489
10.397500
10.396384
10.395202
10.394072
10.393185
10.392768
10.392999
10.393749
10.393644
10.389306
10.378318
10.380134
10.380135
0.000000
0.000000
0.000000
0.000000
0.000000
-4.467371
-4.467371
-4.406156
-4.422002
-4.492599
-4.654064
-4.761387
-4.643446
-4.309540
-3.849459
-3.376574
-2.982895
-2.733034
-2.663468
-2.773709
-3.031648
-3.384218
-3.756900
-4.041946
-4.124716
-3.962326
-3.661172
-3.299881
-2.957396
-2.676761
-2.463279
-2.300731
-2.172149
-2.069744
-1.991605
-1.936791
-1.911986
-1.918176
-1.951633
-2.005885
-2.074617
-2.152537
-2.235104
-2.318292
-2.398470
-2.472395
-2.537525
-2.592325
-2.636304
-2.669934
-2.694469
-2.711584
-2.723138
-2.731226
-2.737799
-2.744320
-2.751437
-2.759227
-2.768085
-2.777661
-2.787350
-2.796347
-2.803631
-2.808020
-2.808289
-2.803310
-2.792145
-2.774104
-2.748770
-2.716003
-2.675944
-2.629029
-2.575971
-2.517729
-2.455464
-2.390464
-2.324051
-2.257501
-2.191977
-2.128485
-2.067851
-2.010714
-1.957520
-1.908537
-1.863875
-1.823517
-1.787342
-1.755145
-1.726657
-1.701555
-1.679477
-1.660030
-1.642795
-1.627336
-1.613207
-1.599967
-1.587188
-1.574474
-1.561478
-1.547923
-1.533619
-1.518484
-1.502565
-1.486049
-1.469279
-1.452748
-1.437085
-1.423025
-1.411354
-1.402855
-1.398229
-1.398044
-1.402676
-1.412289
-1.426823
-1.446018
-1.469445
-1.496548
-1.526698
-1.559236
-1.593510
-1.628909
-1.664881
-1.700942
-1.736685
-1.771774
-1.805937
-1.838960
-1.870680
-1.900969
-1.929735
-1.956908
-1.982441
-2.006305
-2.028483
-2.048977
-2.067799
-2.084975
-2.100538
-2.114531
-2.127000
-2.137994
-2.147557
-2.155725
-2.162522
-2.167953
-2.172000
-2.174618
-2.175728
-2.175216
-2.172937
-2.168723
-2.162402
-2.153840
-2.140655
10.409577
10.409527
10.409385
10.409159
10.408859
10.408498
10.408086
10.407638
10.407164
10.406674
10.406178
10.405681
10.405190
10.404709
10.404242
10.403790
10.403355
10.402937
10.402534
10.402146
10.401770
10.401400
10.401032
10.400659
10.400273
10.399864
10.399426
10.398951
10.398439
10.397899
10.397364
10.396901
10.396644
10.396833
10.397883
10.400483
10.405729
10.415271
10.431997
10.459936
10.503905
10.569018
10.656949
10.757868
10.757868
0.000000
0.000000
0.000000
0.000000
0.000000
-4.505414
-4.505414
-4.512440
-4.578788
-4.733694
-5.008426
-5.264257
-5.223507
-4.900295
-4.391114
-3.835433
-3.348994
-3.008832
-2.851554
-2.874748
-3.044156
-3.302763
-3.574727
-3.767928
-3.800434
-3.644811
-3.387995
-3.096064
-2.829258
-2.619731
-2.462601
-2.334706
-2.219323
-2.112965
-2.020845
-1.955280
-1.920486
-1.917597
-1.943403
-1.992356
-2.058689
-2.137061
-2.222499
-2.310294
-2.395883
-2.475016
-2.544303
-2.601614
-2.646140
-2.678428
-2.700223
-2.713621
-2.720655
-2.724269
-2.726897
-2.730126
-2.734988
-2.741740
-2.750382
-2.760511
-2.771385
-2.782006
-2.791154
-2.797468
-2.799578
-2.796249
-2.786475
-2.769523
-2.744941
-2.712558
-2.672503
-2.625225
-2.571491
-2.512357
-2.449110
-2.383170
-2.315990
-2.248956
-2.183310
-2.120104
-2.060172
-2.004124
-1.952360
-1.905085
-1.862344
-1.824047
-1.790003
-1.759943
-1.733539
-1.710419
-1.690183
-1.672410
-1.656664
-1.642506
-1.629499
-1.617221
-1.605276
-1.593308
-1.581016
-1.568168
-1.554616
-1.540313
-1.525325
-1.509854
-1.494237
-1.478960
-1.464638
-1.451993
-1.441796
-1.434814
-1.431732
-1.433090
-1.439232
-1.450278
-1.466122
-1.486450
-1.510785
-1.538530
-1.569025
-1.601595
-1.635587
-1.670401
-1.705508
-1.740459
-1.774887
-1.808500
-1.841076
-1.872449
-1.902504
-1.931163
-1.958380
-1.984129
-2.008405
-2.031212
-2.052567
-2.072492
-2.091018
-2.108178
-2.124008
-2.138548
-2.151833
-2.163899
-2.174775
-2.184484
-2.193035
-2.200424
-2.206629
-2.211610
-2.215301
-2.217618
-2.218460
-2.217717
-2.215293
-2.211133
-2.203794
10.408099
10.408055
10.407931
10.407732
10.407466
10.407141
10.406767
10.406354
10.405912
10.405448
10.404971
10.404486
10.403998
10.403512
10.403031
10.402556
10.402089
10.401629
10.401177
10.400729
10.400283
10.399836
10.399382
10.398917
10.398434
10.397929
10.397399
10.396848
10.396289
10.395757
10.395320
10.395105
10.395339
10.396411
10.398972
10.404084
10.413432
10.429580
10.456156
10.498660
10.563595
10.654711
10.765885
10.869394
10.869395
0.000000
0.000000
0.000000
0.000000
0.000000
-4.539603
-4.539604
-4.585440
-4.702163
-4.912961
-5.244987
-5.606950
-5.642652
-5.298840
-4.732610
-4.108701
-3.548273
-3.131604
-2.896137
-2.837826
-2.919892
-3.084236
-3.260218
-3.374551
-3.372991
-3.244427
-3.042866
-2.832281
-2.654557
-2.527279
-2.431982
-2.339959
-2.239552
-2.135617
-2.039990
-1.967415
-1.924903
-1.914048
-1.932544
-1.975888
-2.038933
-2.116606
-2.203959
-2.295927
-2.387202
-2.472639
-2.547951
-2.609954
-2.656759
-2.688527
-2.707901
-2.716941
-2.718707
-2.717313
-2.715430
-2.714984
-2.717003
-2.721856
-2.729489
-2.739447
-2.750875
-2.762585
-2.773145
-2.781015
-2.784710
-2.782926
-2.774611
-2.758980
-2.735509
-2.703948
-2.664361
-2.617175
-2.563192
-2.503563
-2.439707
-2.373191
-2.305606
-2.238451
-2.173042
-2.110462
-2.051537
-1.996838
-1.946703
-1.901265
-1.860496
-1.824234
-1.792226
-1.764148
-1.739626
-1.718254
-1.699606
-1.683241
-1.668713
-1.655583
-1.643422
-1.631831
-1.620447
-1.608959
-1.597120
-1.584757
-1.571781
-1.558195
-1.544105
-1.529733
-1.515428
-1.501666
-1.489048
-1.478268
-1.470073
-1.465189
-1.464260
-1.467776
-1.476020
-1.489046
-1.506680
-1.528544
-1.554103
-1.582719
-1.613708
-1.646384
-1.680107
-1.714302
-1.748478
-1.782232
-1.815249
-1.847292
-1.878191
-1.907834
-1.936155
-1.963125
-1.988740
-2.013017
-2.035987
-2.057689
-2.078167
-2.097469
-2.115640
-2.132726
-2.148769
-2.163804
-2.177863
-2.190971
-2.203145
-2.214391
-2.224708
-2.234081
-2.242483
-2.249875
-2.256203
-2.261404
-2.265409
-2.268154
-2.269590
-2.269703
-2.267844
10.406703
10.406664
10.406552
10.406373
10.406131
10.405833
10.405487
10.405100
10.404681
10.404236
10.403771
10.403293
10.402805
10.402310
10.401813
10.401314
10.400815
10.400315
10.399813
10.399308
10.398798
10.398277
10.397743
10.397191
10.396616
10.396016
10.395390
10.394748
10.394109
10.393516
10.393050
10.392859
10.393197
10.394496
10.397475
10.403305
10.413849
10.431971
10.461822
10.508798
10.578252
10.672214
10.781950
10.878776
10.878777
0.000000
0.000000
0.000000
0.000000
0.000000
-4.552161
-4.552161
-4.618887
-4.758892
-4.985103
-5.315445
-5.736148
-5.835446
-5.417848
-4.799107
-4.138659
-3.536232
-3.072126
-2.787404
-2.676473
-2.698263
-2.793932
-2.900193
-2.960624
-2.941182
-2.844534
-2.711928
-2.586125
-2.503072
-2.449173
-2.401070
-2.331536
-2.235749
-2.130352
-2.033258
-1.957439
-1.912716
-1.897707
-1.911115
-1.949811
-2.009638
-2.086051
-2.174282
-2.269238
-2.365502
-2.457629
-2.540401
-2.609104
-2.660575
-2.694363
-2.712224
-2.719938
-2.717846
-2.711851
-2.705170
-2.700485
-2.698910
-2.700951
-2.706629
-2.715471
-2.726537
-2.738505
-2.749799
-2.758774
-2.763868
-2.763714
-2.757184
-2.743380
-2.721631
-2.691533
-2.653028
-2.606485
-2.552737
-2.493040
-2.428968
-2.362256
-2.294650
-2.227762
-2.162980
-2.101404
-2.043835
-1.990781
-1.942499
-1.899030
-1.860252
-1.825924
-1.795722
-1.769274
-1.746177
-1.726013
-1.708357
-1.692777
-1.678848
-1.666152
-1.654287
-1.642886
-1.631626
-1.620245
-1.608553
-1.596438
-1.583875
-1.570924