# vtk DataFile Version 3.0
Scalar Field
ASCII
DATASET RECTILINEAR_GRID
DIMENSIONS 200 50 1
X_COORDINATES 200 double
0.050000 0.150000 0.250000 0.350000 0.450000 0.550000 0.650000 0.750000 0.850000 0.950000 1.050000 1.150000 1.250000 1.350000 1.450000 1.550000 1.650000 1.750000 1.850000 1.950000 2.050000 2.150000 2.250000 2.350000 2.450000 2.550000 2.650000 2.750000 2.850000 2.950000 3.050000 3.150000 3.250000 3.350000 3.450000 3.550000 3.650000 3.750000 3.850000 3.950000 4.050000 4.150000 4.250000 4.350000 4.450000 4.550000 4.650000 4.750000 4.850000 4.950000 5.050000 5.150000 5.250000 5.350000 5.450000 5.550000 5.650000 5.750000 5.850000 5.950000 6.050000 6.150000 6.250000 6.350000 6.450000 6.550000 6.650000 6.750000 6.850000 6.950000 7.050000 7.150000 7.250000 7.350000 7.450000 7.550000 7.650000 7.750000 7.850000 7.950000 8.050000 8.150000 8.250000 8.350000 8.450000 8.550000 8.650000 8.750000 8.850000 8.950000 9.050000 9.150000 9.250000 9.350000 9.450000 9.550000 9.650000 9.750000 9.850000 9.950000 10.050000 10.150000 10.250000 10.350000 10.450000 10.550000 10.650000 10.750000 10.850000 10.950000 11.050000 11.150000 11.250000 11.350000 11.450000 11.550000 11.650000 11.750000 11.850000 11.950000 12.050000 12.150000 12.250000 12.350000 12.450000 12.550000 12.650000 12.750000 12.850000 12.950000 13.050000 13.150000 13.250000 13.350000 13.450000 13.550000 13.650000 13.750000 13.850000 13.950000 14.050000 14.150000 14.250000 14.350000 14.450000 14.550000 14.650000 14.750000 14.850000 14.950000 15.050000 15.150000 15.250000 15.350000 15.450000 15.550000 15.650000 15.750000 15.850000 15.950000 16.050000 16.150000 16.250000 16.350000 16.450000 16.550000 16.650000 16.750000 16.850000 16.950000 17.050000 17.150000 17.250000 17.350000 17.450000 17.550000 17.650000 17.750000 17.850000 17.950000 18.050000 18.150000 18.250000 18.350000 18.450000 18.550000 18.650000 18.750000 18.850000 18.950000 19.050000 19.150000 19.250000 19.350000 19.450000 19.550000 19.650000 19.750000 19.850000 19.950000 
Y_COORDINATES 50 double
0.050000 0.150000 0.250000 0.350000 0.450000 0.550000 0.650000 0.750000 0.850000 0.950000 1.050000 1.150000 1.250000 1.350000 1.450000 1.550000 1.650000 1.750000 1.850000 1.950000 2.050000 2.150000 2.250000 2.350000 2.450000 2.550000 2.650000 2.750000 2.850000 2.950000 3.050000 3.150000 3.250000 3.350000 3.450000 3.550000 3.650000 3.750000 3.850000 3.950000 4.050000 4.150000 4.250000 4.350000 4.450000 4.550000 4.650000 4.750000 4.850000 4.950000 
Z_COORDINATES 1 double
0.0
POINT_DATA 10000
SCALARS Skalarfeld double 1
LOOKUP_TABLE default
9.027594
9.015177
9.008127
9.003471
9.000068
8.997416
8.995262
8.993467
8.991947
8.990648
8.989535
8.988586
8.987785
8.987124
8.986599
8.986208
8.985956
8.985848
8.985893
8.986102
8.986491
8.987078
8.987884
8.988937
8.990269
8.991920
8.993938
8.996381
8.999322
9.002851
9.007078
9.012140
9.018203
9.025463
9.034147
9.044485
9.056672
9.070762
9.086489
9.102996
9.118521
9.129994
9.132807
9.151498
9.151498
0.000000
0.000000
0.000000
0.000000
0.000000
-3.388224
-3.388223
-3.474175
-3.592353
-3.734560
-3.899432
-4.087362
-4.298395
-4.531117
-4.781675
-5.042922
-5.303930
-5.549965
-5.762878
-5.921910
-6.005256
-5.992954
-5.870967
-5.633140
-5.294672
-4.888652
-4.453357
-4.022420
-3.619899
-3.259505
-2.946487
-2.681003
-2.461596
-2.287701
-2.160029
-2.077314
-2.022571
-1.981489
-1.964044
-1.963927
-1.976229
-1.997601
-2.021220
-2.045593
-2.070643
-2.096680
-2.124398
-2.154265
-2.184910
-2.212361
-2.232284
-2.243515
-2.248375
-2.249048
-2.245135
-2.235042
-2.219542
-2.203781
-2.193753
-2.193596
-2.203510
-2.222775
-2.249456
-2.280519
-2.312202
-2.340398
-2.361175
-2.370495
-2.365943
-2.347986
-2.319663
-2.285702
-2.251110
-2.219935
-2.194617
-2.175998
-2.163720
-2.156725
-2.153693
-2.153337
-2.154584
-2.156649
-2.159015
-2.161382
-2.163593
-2.165584
-2.167334
-2.168848
-2.170141
-2.171231
-2.172140
-2.172888
-2.173496
-2.173982
-2.174368
-2.174669
-2.174904
-2.175086
-2.175229
-2.175345
-2.175444
-2.175535
-2.175626
-2.175721
-2.175826
-2.175944
-2.176078
-2.176230
-2.176399
-2.176587
-2.176794
-2.177019
-2.177261
-2.177519
-2.177791
-2.178077
-2.178376
-2.178685
-2.179003
-2.179330
-2.179663
-2.180002
-2.180346
-2.180693
-2.181042
-2.181392
-2.181743
-2.182094
-2.182443
-2.182791
-2.183136
-2.183478
-2.183817
-2.184151
-2.184480
-2.184804
-2.185122
-2.185434
-2.185740
-2.186038
-2.186330
-2.186613
-2.186889
-2.187157
-2.187417
-2.187669
-2.187912
-2.188147
-2.188374
-2.188594
-2.188807
-2.189015
-2.189219
-2.189421
-2.189500
9.013505
9.009841
9.005695
9.002146
8.999231
8.996824
8.994808
8.993097
8.991631
8.990369
8.989282
8.988351
8.987562
8.986908
8.986386
8.985996
8.985740
8.985625
8.985658
8.985852
8.986221
8.986781
8.987553
8.988564
8.989842
8.991425
8.993357
8.995690
8.998490
9.001837
9.005826
9.010579
9.016237
9.022973
9.030985
9.040480
9.051652
9.064601
9.079214
9.094950
9.110567
9.123892
9.137532
9.166296
9.166296
0.000000
0.000000
0.000000
0.000000
0.000000
-3.417336
-3.417335
-3.490542
-3.600187
-3.737718
-3.900930
-4.089803
-4.304281
-4.543081
-4.802404
-5.074826
-5.348854
-5.609116
-5.836838
-6.010408
-6.106490
-6.102996
-5.985147
-5.738191
-5.382806
-4.959264
-4.510359
-4.071410
-3.666496
-3.308404
-3.000722
-2.741492
-2.526904
-2.353894
-2.220910
-2.126729
-2.063664
-2.011633
-1.985369
-1.978692
-1.986564
-2.002859
-2.025181
-2.049814
-2.073926
-2.098236
-2.124792
-2.155478
-2.189041
-2.219512
-2.239915
-2.249031
-2.252028
-2.253007
-2.250430
-2.239910
-2.220477
-2.199818
-2.186089
-2.184572
-2.194922
-2.216117
-2.245725
-2.280235
-2.315555
-2.347243
-2.370998
-2.382825
-2.379534
-2.361285
-2.331215
-2.294539
-2.256954
-2.223144
-2.195934
-2.176236
-2.163526
-2.156488
-2.153571
-2.153348
-2.154691
-2.156807
-2.159194
-2.161565
-2.163775
-2.165762
-2.167509
-2.169019
-2.170307
-2.171393
-2.172296
-2.173038
-2.173638
-2.174118
-2.174496
-2.174790
-2.175017
-2.175192
-2.175328
-2.175438
-2.175532
-2.175617
-2.175703
-2.175793
-2.175894
-2.176008
-2.176139
-2.176287
-2.176454
-2.176639
-2.176844
-2.177066
-2.177306
-2.177561
-2.177832
-2.178117
-2.178413
-2.178721
-2.179038
-2.179363
-2.179695
-2.180033
-2.180375
-2.180721
-2.181069
-2.181418
-2.181768
-2.182118
-2.182466
-2.182813
-2.183158
-2.183499
-2.183837
-2.184170
-2.184499
-2.184822
-2.185140
-2.185451
-2.185756
-2.186054
-2.186344
-2.186627
-2.186902
-2.187169
-2.187427
-2.187676
-2.187917
-2.188148
-2.188371
-2.188585
-2.188790
-2.188987
-2.189178
-2.189368
-2.189440
9.006172
9.004819
9.002479
9.000010
8.997719
8.995683
8.993897
8.992334
8.990968
8.989774
8.988733
8.987833
8.987064
8.986421
8.985900
8.985503
8.985233
8.985095
8.985096
8.985247
8.985560
8.986049
8.986733
8.987631
8.988768
8.990172
8.991876
8.993916
8.996337
8.999187
9.002522
9.006403
9.010896
9.016074
9.022006
9.028758
9.036383
9.044926
9.054462
9.065288
9.078530
9.097941
9.134106
9.195532
9.195532
0.000000
0.000000
0.000000
0.000000
0.000000
-3.477837
-3.477837
-3.534776
-3.631394
-3.759815
-3.918543
-4.108018
-4.328124
-4.577951
-4.853733
-5.147126
-5.445141
-5.730966
-5.984809
-6.183884
-6.302214
-6.312629
-6.193543
-5.918925
-5.525523
-5.064445
-4.586607
-4.129730
-3.717716
-3.361713
-3.062279
-2.813733
-2.608454
-2.440052
-2.304834
-2.201096
-2.126658
-2.067601
-2.031867
-2.016650
-2.017221
-2.028735
-2.046344
-2.066553
-2.088970
-2.111384
-2.137100
-2.167956
-2.201691
-2.230642
-2.247188
-2.252450
-2.255014
-2.259016
-2.259293
-2.248566
-2.220923
-2.192000
-2.172484
-2.168860
-2.180333
-2.205183
-2.239792
-2.279946
-2.321336
-2.359119
-2.388167
-2.404866
-2.404214
-2.385758
-2.352828
-2.311528
-2.268784
-2.230389
-2.199829
-2.178132
-2.164495
-2.157178
-2.154263
-2.154097
-2.155459
-2.157542
-2.159862
-2.162157
-2.164294
-2.166220
-2.167917
-2.169389
-2.170648
-2.171709
-2.172591
-2.173314
-2.173897
-2.174361
-2.174724
-2.175003
-2.175217
-2.175379
-2.175503
-2.175601
-2.175684
-2.175760
-2.175837
-2.175920
-2.176014
-2.176122
-2.176246
-2.176389
-2.176551
-2.176732
-2.176933
-2.177151
-2.177387
-2.177640
-2.177908
-2.178189
-2.178483
-2.178788
-2.179102
-2.179425
-2.179755
-2.180090
-2.180430
-2.180774
-2.181120
-2.181468
-2.181816
-2.182164
-2.182511
-2.182857
-2.183200
-2.183540
-2.183876
-2.184208
-2.184536
-2.184858
-2.185174
-2.185485
-2.185789
-2.186085
-2.186374
-2.186656
-2.186929
-2.187193
-2.187448
-2.187694
-2.187930
-2.188156
-2.188371
-2.188575
-2.188767
-2.188944
-2.189106
-2.189246
-2.189306
9.001423
9.000788
8.999396
8.997697
8.995952
8.994289
8.992757
8.991369
8.990124
8.989014
8.988031
8.987169
8.986423
8.985789
8.985267
8.984857
8.984563
8.984389
8.984342
8.984429
8.984661
8.985049
8.985606
8.986346
8.987285
8.988439
8.989827
8.991463
8.993359
8.995523
8.997947
9.000609
9.003455
9.006387
9.009243
9.011773
9.013623
9.014349
9.013555
9.011405
9.010147
9.017860
9.053875
9.138171
9.138171
0.000000
0.000000
0.000000
0.000000
0.000000
-3.514217
-3.514216
-3.565450
-3.659430
-3.786537
-3.945924
-4.139561
-4.367794
-4.632068
-4.929312
-5.249517
-5.577219
-5.893522
-6.177857
-6.406946
-6.552121
-6.579084
-6.440799
-6.122054
-5.673555
-5.161372
-4.646299
-4.165980
-3.743982
-3.390040
-3.101241
-2.867641
-2.677071
-2.519090
-2.387375
-2.280158
-2.195809
-2.130684
-2.088413
-2.066252
-2.060563
-2.067270
-2.081845
-2.099966
-2.117903
-2.136263
-2.157278
-2.181307
-2.206600
-2.228198
-2.242170
-2.250187
-2.257201
-2.263641
-2.260907
-2.239657
-2.211741
-2.183756
-2.162989
-2.154598
-2.166143
-2.194850
-2.234451
-2.280266
-2.328343
-2.373659
-2.409830
-2.431732
-2.435434
-2.417324
-2.381187
-2.334224
-2.284900
-2.240471
-2.205381
-2.180920
-2.165983
-2.158276
-2.155375
-2.155307
-2.156711
-2.158754
-2.160977
-2.163151
-2.165171
-2.166993
-2.168604
-2.170006
-2.171208
-2.172221
-2.173062
-2.173749
-2.174299
-2.174732
-2.175066
-2.175319
-2.175507
-2.175646
-2.175749
-2.175828
-2.175894
-2.175954
-2.176016
-2.176086
-2.176169
-2.176267
-2.176383
-2.176518
-2.176673
-2.176848
-2.177043
-2.177256
-2.177488
-2.177736
-2.178000
-2.178278
-2.178569
-2.178870
-2.179182
-2.179502
-2.179829
-2.180162
-2.180500
-2.180841
-2.181185
-2.181531
-2.181877
-2.182223
-2.182569
-2.182913
-2.183254
-2.183593
-2.183928
-2.184259
-2.184585
-2.184906
-2.185222
-2.185531
-2.185834
-2.186129
-2.186417
-2.186696
-2.186968
-2.187230
-2.187482
-2.187724
-2.187956
-2.188176
-2.188383
-2.188576
-2.188754
-2.188913
-2.189049
-2.189152
-2.189198
8.997873
8.997513
8.996625
8.995430
8.994106
8.992767
8.991476
8.990264
8.989147
8.988129
8.987211
8.986391
8.985670
8.985046
8.984521
8.984095
8.983771
8.983554
8.983449
8.983461
8.983598
8.983868
8.984278
8.984837
8.985553
8.986429
8.987467
8.988660
8.989990
8.991419
8.992879
8.994255
8.995359
8.995899
8.995419
8.993223
8.988266
8.979005
8.963229
8.938014
8.900314
8.850062
8.800681
8.800434
8.800434
0.000000
0.000000
0.000000
0.000000
0.000000
-3.501887
-3.501887
-3.553678
-3.659003
-3.799831
-3.971796
-4.177067
-4.416319
-4.698285
-5.019438
-5.366869
-5.722644
-6.065707
-6.375535
-6.629645
-6.798015
-6.835308
-6.662241
-6.290908
-5.784163
-5.222701
-4.675989
-4.172011
-3.737816
-3.383977
-3.104689
-2.887311
-2.715645
-2.574294
-2.452759
-2.347147
-2.258330
-2.188683
-2.140834
-2.113534
-2.103575
-2.107078
-2.119616
-2.136500
-2.153623
-2.169402
-2.182334
-2.196497
-2.210276
-2.222284
-2.230935
-2.236532
-2.240118
-2.240792
-2.235083
-2.220379
-2.200264
-2.179540
-2.163226
-2.158615
-2.170589
-2.197645
-2.236054
-2.282936
-2.335077
-2.386894
-2.430279
-2.456268
-2.464203
-2.447189
-2.408445
-2.356355
-2.300836
-2.250569
-2.211033
-2.183903
-2.167807
-2.159850
-2.157038
-2.157062
-2.158448
-2.160377
-2.162440
-2.164450
-2.166322
-2.168019
-2.169529
-2.170848
-2.171980
-2.172931
-2.173716
-2.174351
-2.174852
-2.175239
-2.175530
-2.175742
-2.175892
-2.175996
-2.176067
-2.176116
-2.176155
-2.176191
-2.176232
-2.176284
-2.176350
-2.176434
-2.176537
-2.176662
-2.176807
-2.176974
-2.177162
-2.177370
-2.177596
-2.177840
-2.178099
-2.178373
-2.178660
-2.178958
-2.179267
-2.179584
-2.179909
-2.180239
-2.180575
-2.180914
-2.181256
-2.181600
-2.181944
-2.182289
-2.182633
-2.182976
-2.183316
-2.183653
-2.183987
-2.184317
-2.184643
-2.184963
-2.185278
-2.185586
-2.185888
-2.186182
-2.186469
-2.186747
-2.187017
-2.187277
-2.187527
-2.187766
-2.187994
-2.188209
-2.188409
-2.188594
-2.188760
-2.188905
-2.189023
-2.189107
-2.189145
8.994999
8.994767
8.994161
8.993293
8.992276
8.991198
8.990115
8.989066
8.988073
8.987146
8.986293
8.985518
8.984822
8.984208
8.983678
8.983233
8.982876
8.982611
8.982441
8.982371
8.982405
8.982548
8.982803
8.983173
8.983658
8.984252
8.984943
8.985705
8.986496
8.987242
8.987824
8.988054
8.987632
8.986095
8.982713
8.976338
8.965139
8.946123
8.914210
8.860288
8.766724
8.596239
8.264408
7.866941
2.461044
-4.628283
-4.443996
-4.404057
-4.354619
-4.222805
-3.698934
-3.447853
-3.507440
-3.634222
-3.796443
-3.988599
-4.213724
-4.475104
-4.775838
-5.113536
-5.478891
-5.852346
-6.210646
-6.534054
-6.797505
-6.973606
-7.007094
-6.801892
-6.385742
-5.841628
-5.253873
-4.682326
-4.168123
-3.731351
-3.378509
-3.104703
-2.897265
-2.738579
-2.610586
-2.499592
-2.399141
-2.309633
-2.235551
-2.182137
-2.150559
-2.137872
-2.139789
-2.151376
-2.167509
-2.183993
-2.198372
-2.209590
-2.216228
-2.219030
-2.220105
-2.219519
-2.217226
-2.213225
-2.209431
-2.207365
-2.204896
-2.201207
-2.194648
-2.189891
-2.191183
-2.202830
-2.225544
-2.258494
-2.300431
-2.348985
-2.399275
-2.443385
-2.471185
-2.473974
-2.460632
-2.421766
-2.367307
-2.308570
-2.255166
-2.213357
-2.185208
-2.169169
-2.161778
-2.159476
-2.159676
-2.160921
-2.162543
-2.164283
-2.166026
-2.167696
-2.169246
-2.170648
-2.171883
-2.172942
-2.173826
-2.174546
-2.175117
-2.175556
-2.175882
-2.176115
-2.176272
-2.176371
-2.176427
-2.176453
-2.176463
-2.176465
-2.176469
-2.176482
-2.176509
-2.176553
-2.176619
-2.176706
-2.176817
-2.176951
-2.177108
-2.177288
-2.177488
-2.177708
-2.177946
-2.178201
-2.178471
-2.178754
-2.179049
-2.179355
-2.179669
-2.179991
-2.180320
-2.180653
-2.180991
-2.181331
-2.181673
-2.182016
-2.182360
-2.182702
-2.183044
-2.183383
-2.183720
-2.184053
-2.184382
-2.184707
-2.185027
-2.185341
-2.185649
-2.185950
-2.186244
-2.186530
-2.186808
-2.187076
-2.187335
-2.187583
-2.187820
-2.188045
-2.188256
-2.188451
-2.188630
-2.188788
-2.188924
-2.189032
-2.189107
-2.189142
8.992559
8.992396
8.991958
8.991305
8.990510
8.989632
8.988723
8.987815
8.986932
8.986090
8.985300
8.984566
8.983895
8.983289
8.982752
8.982285
8.981892
8.981574
8.981336
8.981179
8.981106
8.981119
8.981217
8.981398
8.981657
8.981981
8.982347
8.982721
8.983042
8.983217
8.983098
8.982458
8.980936
8.977970
8.972670
8.963598
8.948377
8.922915
8.879757
8.804133
8.663116
8.370144
7.650118
5.139558
-2.944852
-4.628283
-4.443996
-4.404057
-4.354618
-4.222804
-3.950013
-3.657614
-3.649557
-3.746877
-3.891462
-4.074713
-4.298666
-4.564684
-4.871145
-5.212620
-5.578352
-5.950349
-6.306601
-6.623863
-6.876690
-7.039512
-7.060990
-6.823162
-6.377113
-5.814369
-5.225391
-4.669697
-4.177672
-3.761143
-3.422750
-3.157672
-2.954151
-2.796122
-2.667309
-2.554902
-2.452233
-2.358136
-2.276341
-2.215327
-2.179039
-2.164127
-2.165688
-2.177311
-2.192280
-2.205981
-2.216622
-2.224152
-2.228390
-2.230389
-2.227182
-2.220534
-2.212355
-2.206741
-2.204149
-2.202911
-2.203994
-2.207719
-2.214746
-2.223964
-2.235096
-2.252069
-2.273639
-2.300503
-2.332946
-2.370052
-2.408562
-2.442552
-2.464577
-2.466821
-2.442972
-2.407031
-2.355488
-2.299089
-2.247562
-2.207552
-2.181470
-2.167766
-2.162584
-2.161874
-2.162805
-2.164043
-2.165247
-2.166501
-2.167866
-2.169266
-2.170639
-2.171930
-2.173087
-2.174079
-2.174896
-2.175546
-2.176044
-2.176408
-2.176661
-2.176822
-2.176910
-2.176943
-2.176938
-2.176908
-2.176866
-2.176823
-2.176786
-2.176764
-2.176759
-2.176777
-2.176820
-2.176888
-2.176982
-2.177103
-2.177248
-2.177418
-2.177610
-2.177823
-2.178055
-2.178305
-2.178571
-2.178850
-2.179142
-2.179445
-2.179757
-2.180077
-2.180403
-2.180735
-2.181071
-2.181409
-2.181750
-2.182092
-2.182435
-2.182776
-2.183117
-2.183456
-2.183792
-2.184124
-2.184453
-2.184778
-2.185097
-2.185411
-2.185719
-2.186020
-2.186314
-2.186600
-2.186878
-2.187146
-2.187404
-2.187651
-2.187887
-2.188110
-2.188318
-2.188510
-2.188685
-2.188839
-2.188970
-2.189074
-2.189147
-2.189184
8.990422
8.990301
8.989969
8.989462
8.988824
8.988101
8.987329
8.986538
8.985752
8.984985
8.984250
8.983554
8.982904
8.982303
8.981756
8.981265
8.980833
8.980461
8.980152
8.979906
8.979725
8.979607
8.979550
8.979549
8.979594
8.979668
8.979746
8.979788
8.979730
8.979477
8.978880
8.977714
8.975626
8.972065
8.966156
8.956473
8.940625
8.914440
8.870239
8.792876
8.649590
8.358050
7.689012
5.885472
-0.741528
-3.652880
-4.274830
-4.416960
-4.458386
-4.464363
-4.440909
-4.433323
-4.408303
-4.403154
-4.442885
-4.526958
-4.655795
-4.834183
-5.066351
-5.349722
-5.671361
-6.009177
-6.336981
-6.627612
-6.852886
-6.977663
-6.937893
-6.655072
-6.197839
-5.656382
-5.113049
-4.615694
-4.181475
-3.814118
-3.514153
-3.277353
-3.091435
-2.938141
-2.800353
-2.669462
-2.546982
-2.432842
-2.329516
-2.253273
-2.209548
-2.190724
-2.192677
-2.206013
-2.219942
-2.228471
-2.230972
-2.229925
-2.228255
-2.227937
-2.228554
-2.229342
-2.230702
-2.232511
-2.233879
-2.233753
-2.232821
-2.233371
-2.238808
-2.251960
-2.274366
-2.300013
-2.326545
-2.351502
-2.375140
-2.397712
-2.418287
-2.433984
-2.440333
-2.432642
-2.407864
-2.366561
-2.319569
-2.269794
-2.225004
-2.190999
-2.170135
-2.160985
-2.159647
-2.161851
-2.164591
-2.166589
-2.167780
-2.168752
-2.169833
-2.171020
-2.172225
-2.173402
-2.174485
-2.175409
-2.176154
-2.176724
-2.177137
-2.177414
-2.177578
-2.177651
-2.177655
-2.177607
-2.177527
-2.177428
-2.177324
-2.177225
-2.177140
-2.177074
-2.177033
-2.177019
-2.177034
-2.177080
-2.177156
-2.177260
-2.177393
-2.177551
-2.177735
-2.177940
-2.178166
-2.178411
-2.178672
-2.178948
-2.179237
-2.179537
-2.179847
-2.180164
-2.180489
-2.180819
-2.181153
-2.181491
-2.181831
-2.182172
-2.182514
-2.182855
-2.183195
-2.183533
-2.183869
-2.184202
-2.184531
-2.184855
-2.185175
-2.185489
-2.185797
-2.186099
-2.186393
-2.186679
-2.186957
-2.187226
-2.187484
-2.187731
-2.187967
-2.188189
-2.188396
-2.188588
-2.188761
-2.188914
-2.189044
-2.189147
-2.189222
-2.189264
8.988512
8.988418
8.988156
8.987748
8.987225
8.986617
8.985954
8.985259
8.984552
8.983849
8.983161
8.982497
8.981863
8.981265
8.980706
8.980188
8.979715
8.979287
8.978906
8.978571
8.978282
8.978036
8.977829
8.977655
8.977502
8.977352
8.977182
8.976953
8.976610
8.976073
8.975219
8.973868
8.971744
8.968422
8.963230
8.955080
8.942156
8.921298
8.886724
8.824938
8.704406
8.441536
7.761717
5.293237
-2.799177
-4.599225
-4.484511
-4.530644
-4.637582
-4.840475
-5.141596
-5.600767
-5.575657
-5.461118
-5.400658
-5.371177
-5.359544
-5.377059
-5.445894
-5.579955
-5.775537
-6.012664
-6.261499
-6.487571
-6.652629
-6.704776
-6.570402
-6.262793
-5.830586
-5.353682
-4.897698
-4.492746
-4.142245
-3.844668
-3.602062
-3.413391
-3.266964
-3.141279
-3.013422
-2.869604
-2.712756
-2.557484
-2.422253
-2.319016
-2.258006
-2.225776
-2.227365
-2.245042
-2.259296
-2.261973
-2.254202
-2.241754
-2.231023
-2.226634
-2.230271
-2.241084
-2.256377
-2.272122
-2.284105
-2.289442
-2.288131
-2.283566
-2.281888
-2.289765
-2.311161
-2.343638
-2.377573
-2.404133
-2.422339
-2.431831
-2.433468
-2.427672
-2.413857
-2.390929
-2.358480
-2.318042
-2.273650
-2.230188
-2.193488
-2.167334
-2.153191
-2.149424
-2.152287
-2.157728
-2.162907
-2.166659
-2.169071
-2.170614
-2.171800
-2.172944
-2.174113
-2.175232
-2.176213
-2.177026
-2.177660
-2.178120
-2.178422
-2.178589
-2.178643
-2.178609
-2.178509
-2.178364
-2.178194
-2.178012
-2.177834
-2.177669
-2.177525
-2.177410
-2.177325
-2.177275
-2.177260
-2.177281
-2.177335
-2.177422
-2.177540
-2.177687
-2.177861
-2.178059
-2.178279
-2.178518
-2.178775
-2.179047
-2.179333
-2.179631
-2.179938
-2.180254
-2.180577
-2.180906
-2.181239
-2.181576
-2.181915
-2.182256
-2.182597
-2.182938
-2.183278
-2.183616
-2.183952
-2.184285
-2.184614
-2.184939
-2.185259
-2.185574
-2.185883
-2.186185
-2.186481
-2.186768
-2.187047
-2.187316
-2.187576
-2.187824
-2.188060
-2.188283
-2.188491
-2.188683
-2.188858
-2.189012
-2.189143
-2.189250
-2.189329
-2.189380
8.986778
8.986702
8.986488
8.986151
8.985711
8.985190
8.984610
8.983991
8.983349
8.982698
8.982049
8.981410
8.980789
8.980189
8.979614
8.979068
8.978552
8.978067
8.977614
8.977190
8.976796
8.976426
8.976077
8.975740
8.975406
8.975057
8.974674
8.974229
8.973681
8.972978
8.972045
8.970779
8.969032
8.966589
8.963125
8.958127
8.950753
8.939531
8.921003
8.888374
8.826269
8.697140
8.407892
8.022830
2.611827
-4.599225
-4.484512
-4.530644
-4.637582
-4.840475
-5.917315
-6.693033
-6.329210
-6.229296
-6.259853
-6.264155
-6.192081
-6.061729
-5.931439
-5.853838
-5.852838
-5.922147
-6.033890
-6.147851
-6.216226
-6.182651
-5.987423
-5.685796
-5.319500
-4.945456
-4.606333
-4.311739
-4.053543
-3.829445
-3.647360
-3.512640
-3.415848
-3.332834
-3.233834
-3.093448
-2.912270
-2.723767
-2.552923
-2.416989
-2.312655
-2.266502
-2.268698
-2.292390
-2.308141
-2.305568
-2.287978
-2.264522
-2.244673
-2.235353
-2.239693
-2.256923
-2.282892
-2.311198
-2.334964
-2.348889
-2.351124
-2.344434
-2.336068
-2.335629
-2.350805
-2.382407
-2.422200
-2.453536
-2.470179
-2.470587
-2.456304
-2.430496
-2.396420
-2.356770
-2.313854
-2.270160
-2.228944
-2.193615
-2.163969
-2.144977
-2.137254
-2.138439
-2.144925
-2.153076
-2.160427
-2.165972
-2.169768
-2.172244
-2.173940
-2.175296
-2.176477
-2.177485
-2.178321
-2.178979
-2.179460
-2.179770
-2.179926
-2.179951
-2.179868
-2.179701
-2.179476
-2.179215
-2.178936
-2.178657
-2.178391
-2.178150
-2.177940
-2.177767
-2.177634
-2.177543
-2.177494
-2.177487
-2.177518
-2.177587
-2.177690
-2.177824
-2.177988
-2.178178
-2.178391
-2.178626
-2.178878
-2.179147
-2.179431
-2.179726
-2.180032
-2.180346
-2.180668
-2.180996
-2.181328
-2.181664
-2.182003
-2.182343
-2.182684
-2.183025
-2.183365
-2.183703
-2.184040
-2.184373
-2.184703
-2.185029
-2.185350
-2.185666
-2.185976
-2.186280
-2.186577
-2.186866
-2.187146
-2.187417
-2.187678
-2.187929
-2.188167
-2.188392
-2.188603
-2.188797
-2.188974
-2.189132
-2.189268
-2.189380
-2.189467
-2.189528
8.985187
8.985123
8.984943
8.984656
8.984277
8.983821
8.983305
8.982745
8.982154
8.981545
8.980927
8.980307
8.979692
8.979087
8.978495
8.977919
8.977359
8.976817
8.976292
8.975782
8.975285
8.974797
8.974312
8.973824
8.973322
8.972795
8.972228
8.971604
8.970903
8.970107
8.969196
8.968159
8.966998
8.965741
8.964463
8.963304
8.962489
8.962304
8.963023
8.964668
8.966096
8.964250
8.956996
8.963457
8.963457
0.000000
0.000000
0.000000
0.000000
0.000000
-6.666714
-6.666713
-6.606932
-6.661557
-6.770392
-6.940605
-6.920914
-6.708428
-6.402655
-6.105807
-5.880447
-5.744273
-5.680455
-5.651261
-5.609599
-5.508967
-5.317063
-5.056958
-4.784399
-4.533871
-4.320129
-4.131089
-3.950616
-3.781741
-3.644687
-3.554227
-3.503057
-3.463876
-3.402386
-3.289891
-3.115883
-2.910408
-2.701942
-2.519985
-2.389298
-2.329355
-2.326150
-2.343413
-2.358156
-2.351524
-2.326652
-2.294764
-2.267290
-2.252600
-2.254903
-2.273926
-2.305244
-2.341485
-2.374271
-2.396436
-2.404168
-2.398642
-2.386590
-2.378866
-2.386270
-2.413488
-2.454816
-2.494638
-2.512289
-2.508659
-2.483913
-2.442854
-2.391926
-2.337248
-2.283748
-2.235080
-2.193946
-2.162431
-2.142229
-2.130931
-2.128152
-2.132803
-2.141623
-2.151388
-2.160027
-2.166700
-2.171420
-2.174583
-2.176700
-2.178193
-2.179311
-2.180168
-2.180818
-2.181281
-2.181567
-2.181689
-2.181663
-2.181512
-2.181260
-2.180933
-2.180558
-2.180157
-2.179751
-2.179358
-2.178992
-2.178662
-2.178377
-2.178140
-2.177954
-2.177818
-2.177733
-2.177695
-2.177702
-2.177751
-2.177839
-2.177961
-2.178115
-2.178297
-2.178504
-2.178733
-2.178982
-2.179248
-2.179529
-2.179822
-2.180126
-2.180440
-2.180760
-2.181087
-2.181419
-2.181755
-2.182094
-2.182434
-2.182775
-2.183116
-2.183457
-2.183796
-2.184133
-2.184467
-2.184798
-2.185125
-2.185448
-2.185765
-2.186077
-2.186383
-2.186681
-2.186972
-2.187255
-2.187529
-2.187793
-2.188046
-2.188287
-2.188516
-2.188730
-2.188929
-2.189110
-2.189274
-2.189416
-2.189536
-2.189633
-2.189705
8.983716
8.983661
8.983505
8.983255
8.982920
8.982512
8.982045
8.981530
8.980979
8.980401
8.979805
8.979199
8.978586
8.977972
8.977360
8.976752
8.976148
8.975549
8.974954
8.974360
8.973765
8.973164
8.972551
8.971920
8.971262
8.970570
8.969835
8.969051
8.968217
8.967345
8.966468
8.965658
8.965052
8.964899
8.965628
8.967954
8.973013
8.982528
8.999444
9.028008
9.073187
9.140297
9.230938
9.334407
9.334407
0.000000
0.000000
0.000000
0.000000
0.000000
-6.737180
-6.737180
-6.768308
-6.896723
-7.155259
-7.479940
-7.511010
-7.235027
-6.781024
-6.291113
-5.859415
-5.526472
-5.290414
-5.122983
-4.985871
-4.845820
-4.688188
-4.525286
-4.357671
-4.231733
-4.127456
-4.011724
-3.868274
-3.717594
-3.597365
-3.532199
-3.515365
-3.513869
-3.487809
-3.406311
-3.256849
-3.056909
-2.838457
-2.638634
-2.488820
-2.406475
-2.384865
-2.394946
-2.403638
-2.393404
-2.365300
-2.329835
-2.298471
-2.279898
-2.278797
-2.295476
-2.326098
-2.363585
-2.399289
-2.425246
-2.436461
-2.432703
-2.419485
-2.407293
-2.408275
-2.430167
-2.470350
-2.515132
-2.539977
-2.538077
-2.509444
-2.459695
-2.397598
-2.332039
-2.270211
-2.216981
-2.175056
-2.145527
-2.128383
-2.122315
-2.124790
-2.132565
-2.142833
-2.153299
-2.162425
-2.169543
-2.174637
-2.178062
-2.180281
-2.181718
-2.182669
-2.183307
-2.183717
-2.183939
-2.183990
-2.183885
-2.183640
-2.183277
-2.182823
-2.182305
-2.181751
-2.181186
-2.180633
-2.180109
-2.179628
-2.179200
-2.178831
-2.178524
-2.178279
-2.178096
-2.177971
-2.177902
-2.177885
-2.177914
-2.177986
-2.178096
-2.178240
-2.178414
-2.178616
-2.178840
-2.179086
-2.179349
-2.179628
-2.179919
-2.180222
-2.180535
-2.180855
-2.181182
-2.181513
-2.181849
-2.182188
-2.182528
-2.182870
-2.183212
-2.183553
-2.183893
-2.184231
-2.184566
-2.184899
-2.185227
-2.185552
-2.185871
-2.186185
-2.186493
-2.186794
-2.187088
-2.187374
-2.187651
-2.187918
-2.188175
-2.188421
-2.188654
-2.188873
-2.189077
-2.189266
-2.189436
-2.189587
-2.189717
-2.189824
-2.189911
8.982349
8.982300
8.982161
8.981937
8.981635
8.981264
8.980833
8.980352
8.979830
8.979275
8.978695
8.978096
8.977481
8.976856
8.976222
8.975581
8.974933
8.974278
8.973614
8.972939
8.972250
8.971541
8.970806
8.970040
8.969235
8.968386
8.967488
8.966543
8.965564
8.964584
8.963669
8.962948
8.962650
8.963168
8.965165
8.969729
8.978588
8.994378
9.020845
9.063524
9.129161
9.221653
9.334730
9.440014
9.440014
0.000000
0.000000
0.000000
0.000000
0.000000
-6.783369
-6.783368
-6.863824
-7.048614
-7.363514
-7.784965
-7.942578
-7.578261
-7.002033
-6.369588
-5.786608
-5.307405
-4.943041
-4.675899
-4.477370
-4.323731
-4.206381
-4.136213
-4.110671
-4.091073
-4.047304
-3.946312
-3.792924
-3.625407
-3.495262
-3.436452
-3.442650
-3.473012
-3.479829
-3.429320
-3.311300
-3.132965
-2.925784
-2.727630
-2.571586
-2.476825
-2.440341
-2.437694
-2.438610
-2.426714
-2.400462
-2.367685
-2.338114
-2.319633
-2.316762
-2.330044
-2.356086
-2.388440
-2.419241
-2.441189
-2.449541
-2.443717
-2.428572
-2.413563
-2.410408
-2.427977
-2.466066
-2.512601
-2.547949
-2.551731
-2.525312
-2.473738
-2.407077
-2.336139
-2.269842
-2.214103
-2.171834
-2.143592
-2.128380
-2.124122
-2.128001
-2.136830
-2.147706
-2.158404
-2.167554
-2.174607
-2.179599
-2.182848
-2.184821
-2.185961
-2.186592
-2.186912
-2.187018
-2.186953
-2.186730
-2.186360
-2.185859
-2.185248
-2.184557
-2.183814
-2.183052
-2.182298
-2.181575
-2.180902
-2.180292
-2.179754
-2.179293
-2.178910
-2.178603
-2.178370
-2.178206
-2.178105
-2.178062
-2.178072
-2.178128
-2.178227
-2.178362
-2.178529
-2.178726
-2.178946
-2.179189
-2.179450
-2.179727
-2.180017
-2.180319
-2.180631
-2.180951
-2.181278
-2.181610
-2.181946
-2.182285
-2.182626
-2.182968
-2.183311
-2.183653
-2.183994
-2.184334
-2.184671
-2.185005
-2.185335
-2.185662
-2.185984
-2.186300
-2.186611
-2.186915
-2.187212
-2.187502
-2.187783
-2.188055
-2.188316
-2.188567
-2.188806
-2.189031
-2.189243
-2.189439
-2.189618
-2.189779
-2.189920
-2.190040
-2.190142
8.981073
8.981029
8.980903
8.980697
8.980419
8.980074
8.979670
8.979214
8.978713
8.978175
8.977605
8.977007
8.976387
8.975748
8.975090
8.974415
8.973724
8.973014
8.972285
8.971533
8.970753
8.969941
8.969091
8.968196
8.967250
8.966246
8.965183
8.964065
8.962908
8.961751
8.960672
8.959814
8.959430
8.959953
8.962108
8.967084
8.976783
8.994136
9.023412
9.070198
9.140053
9.235138
9.346681
9.445397
9.445397
0.000000
0.000000
0.000000
0.000000
0.000000
-6.793969
-6.793968
-6.903491
-7.100813
-7.392348
-7.713780
-7.908328
-7.623483
-6.990142
-6.297049
-5.642410
-5.091170
-4.665526
-4.355973
-4.140278
-4.000936
-3.931332
-3.930045
-3.981307
-4.020559
-3.985113
-3.864337
-3.678666
-3.476794
-3.321271
-3.257038
-3.279789
-3.339256
-3.378679
-3.362086
-3.280206
-3.133681
-2.951905
-2.770366
-2.621460
-2.524983
-2.480224
-2.467373
-2.462318
-2.451245
-2.430951
-2.406078
-2.383745
-2.370294
-2.369534
-2.381783
-2.403689
-2.428980
-2.450176
-2.460981
-2.458384
-2.442882
-2.420568
-2.400558
-2.393604
-2.407786
-2.443757
-2.491356
-2.532345
-2.545729
-2.526322
-2.478832
-2.413833
-2.343164
-2.276789
-2.221328
-2.179896
-2.152818
-2.138635
-2.134918
-2.138772
-2.147167
-2.157370
-2.167293
-2.175667
-2.181995
-2.186355
-2.188968
-2.190321
-2.190898
-2.191041
-2.190943
-2.190689
-2.190300
-2.189773
-2.189109
-2.188318
-2.187423
-2.186457
-2.185455
-2.184453
-2.183481
-2.182566
-2.181725
-2.180973
-2.180315
-2.179755
-2.179292
-2.178920
-2.178636
-2.178431
-2.178299
-2.178231
-2.178223
-2.178265
-2.178353
-2.178480
-2.178641
-2.178833
-2.179051
-2.179291
-2.179550
-2.179826
-2.180116
-2.180418
-2.180730
-2.181050
-2.181376
-2.181709
-2.182045
-2.182385
-2.182727
-2.183070
-2.183414
-2.183757
-2.184100
-2.184441
-2.184780
-2.185116
-2.185449
-2.185778
-2.186103
-2.186422
-2.186736
-2.187044
-2.187345
-2.187639
-2.187925
-2.188202
-2.188469
-2.188726
-2.188971
-2.189204
-2.189424
-2.189629
-2.189818
-2.189990
-2.190144
-2.190279
-2.190397
8.979881
8.979840
8.979723
8.979531
8.979270
8.978944
8.978558
8.978120
8.977634