# vtk DataFile Version 3.0
Vector Field
ASCII
DATASET RECTILINEAR_GRID
DIMENSIONS 200 50 1
X_COORDINATES 200 double
0.050000 0.150000 0.250000 0.350000 0.450000 0.550000 0.650000 0.750000 0.850000 0.950000 1.050000 1.150000 1.250000 1.350000 1.450000 1.550000 1.650000 1.750000 1.850000 1.950000 2.050000 2.150000 2.250000 2.350000 2.450000 2.550000 2.650000 2.750000 2.850000 2.950000 3.050000 3.150000 3.250000 3.350000 3.450000 3.550000 3.650000 3.750000 3.850000 3.950000 4.050000 4.150000 4.250000 4.350000 4.450000 4.550000 4.650000 4.750000 4.850000 4.950000 5.050000 5.150000 5.250000 5.350000 5.450000 5.550000 5.650000 5.750000 5.850000 5.950000 6.050000 6.150000 6.250000 6.350000 6.450000 6.550000 6.650000 6.750000 6.850000 6.950000 7.050000 7.150000 7.250000 7.350000 7.450000 7.550000 7.650000 7.750000 7.850000 7.950000 8.050000 8.150000 8.250000 8.350000 8.450000 8.550000 8.650000 8.750000 8.850000 8.950000 9.050000 9.150000 9.250000 9.350000 9.450000 9.550000 9.650000 9.750000 9.850000 9.950000 10.050000 10.150000 10.250000 10.350000 10.450000 10.550000 10.650000 10.750000 10.850000 10.950000 11.050000 11.150000 11.250000 11.350000 11.450000 11.550000 11.650000 11.750000 11.850000 11.950000 12.050000 12.150000 12.250000 12.350000 12.450000 12.550000 12.650000 12.750000 12.850000 12.950000 13.050000 13.150000 13.250000 13.350000 13.450000 13.550000 13.650000 13.750000 13.850000 13.950000 14.050000 14.150000 14.250000 14.350000 14.450000 14.550000 14.650000 14.750000 14.850000 14.950000 15.050000 15.150000 15.250000 15.350000 15.450000 15.550000 15.650000 15.750000 15.850000 15.950000 16.050000 16.150000 16.250000 16.350000 16.450000 16.550000 16.650000 16.750000 16.850000 16.950000 17.050000 17.150000 17.250000 17.350000 17.450000 17.550000 17.650000 17.750000 17.850000 17.950000 18.050000 18.150000 18.250000 18.350000 18.450000 18.550000 18.650000 18.750000 18.850000 18.950000 19.050000 19.150000 19.250000 19.350000 19.450000 19.550000 19.650000 19.750000 19.850000 19.950000 
Y_COORDINATES 50 double
0.050000 0.150000 0.250000 0.350000 0.450000 0.550000 0.650000 0.750000 0.850000 0.950000 1.050000 1.150000 1.250000 1.350000 1.450000 1.550000 1.650000 1.750000 1.850000 1.950000 2.050000 2.150000 2.250000 2.350000 2.450000 2.550000 2.650000 2.750000 2.850000 2.950000 3.050000 3.150000 3.250000 3.350000 3.450000 3.550000 3.650000 3.750000 3.850000 3.950000 4.050000 4.150000 4.250000 4.350000 4.450000 4.550000 4.650000 4.750000 4.850000 4.950000 
Z_COORDINATES 1 double
0.0
POINT_DATA 10000
VECTORS Vektorfeld double
0.996417 0.003583 0.0
0.986627 0.006206 0.0
0.973099 0.007322 0.0
0.957915 0.007862 0.0
0.941904 0.008148 0.0
0.925451 0.008305 0.0
0.908757 0.008389 0.0
0.891941 0.008427 0.0
0.875077 0.008437 0.0
0.858214 0.008427 0.0
0.841382 0.008405 0.0
0.824602 0.008376 0.0
0.807883 0.008343 0.0
0.791229 0.008311 0.0
0.774637 0.008281 0.0
0.758102 0.008254 0.0
0.741614 0.008233 0.0
0.725161 0.008219 0.0
0.708729 0.008213 0.0
0.692298 0.008217 0.0
0.675848 0.008233 0.0
0.659351 0.008264 0.0
0.642775 0.008313 0.0
0.626077 0.008385 0.0
0.609204 0.008488 0.0
0.592087 0.008629 0.0
0.574638 0.008820 0.0
0.556740 0.009077 0.0
0.538243 0.009420 0.0
0.518946 0.009877 0.0
0.498586 0.010484 0.0
0.476810 0.011292 0.0
0.453149 0.012370 0.0
0.426971 0.013808 0.0
0.397440 0.015724 0.0
0.363451 0.018265 0.0
0.323587 0.021599 0.0
0.276109 0.025880 0.0
0.219058 0.031171 0.0
0.150614 0.037273 0.0
0.069761 0.043580 0.0
-0.019456 0.045637 0.0
-0.083110 0.018017 0.0
-0.050564 -0.050564 0.0
0.500000 0.050565 0.0
1.000000 0.000000 0.0
1.000000 0.000000 0.0
1.000000 0.000000 0.0
1.000000 0.000000 0.0
1.000000 0.000000 0.0
0.500000 0.030581 0.0
0.030626 -0.030626 0.0
0.077643 -0.016392 0.0
0.097868 -0.003833 0.0
0.098596 0.003105 0.0
0.089786 0.005705 0.0
0.080341 0.003740 0.0
0.076451 0.000151 0.0
0.076370 -0.000070 0.0
0.074167 0.002274 0.0
0.065465 0.006428 0.0
0.046633 0.012404 0.0
0.015040 0.019189 0.0
-0.029718 0.025569 0.0
-0.086420 0.031133 0.0
-0.152468 0.034915 0.0
-0.223306 0.035922 0.0
-0.292875 0.033647 0.0
-0.354795 0.028272 0.0
-0.403622 0.020556 0.0
-0.435773 0.011595 0.0
-0.449915 0.002547 0.0
-0.446646 -0.005816 0.0
-0.428382 -0.012447 0.0
-0.399425 -0.016510 0.0
-0.365142 -0.017773 0.0
-0.330953 -0.016416 0.0
-0.301694 -0.012843 0.0
-0.281263 -0.007589 0.0
-0.272321 -0.001354 0.0
-0.275643 0.004677 0.0
-0.290451 0.010132 0.0
-0.315589 0.015006 0.0
-0.349795 0.019200 0.0
-0.391634 0.022638 0.0
-0.439556 0.025284 0.0
-0.491987 0.027147 0.0
-0.547407 0.028272 0.0
-0.604410 0.028731 0.0
-0.661757 0.028615 0.0
-0.718398 0.028026 0.0
-0.773489 0.027065 0.0
-0.826383 0.025829 0.0
-0.876613 0.024401 0.0
-0.923867 0.022853 0.0
-0.967960 0.021240 0.0
-1.008804 0.019603 0.0
-1.046380 0.017973 0.0
-1.080723 0.016370 0.0
-1.111904 0.014811 0.0
-1.140020 0.013306 0.0
-1.165187 0.011861 0.0
-1.187526 0.010477 0.0
-1.207152 0.009149 0.0
-1.224163 0.007863 0.0
-1.238628 0.006602 0.0
-1.250575 0.005346 0.0
-1.259997 0.004076 0.0
-1.266859 0.002786 0.0
-1.271082 0.001437 0.0
-1.272568 0.000049 0.0
-1.271214 -0.001403 0.0
-1.266893 -0.002917 0.0
-1.259496 -0.004480 0.0
-1.248930 -0.006086 0.0
-1.235122 -0.007722 0.0
-1.218025 -0.009375 0.0
-1.197628 -0.011022 0.0
-1.173965 -0.012641 0.0
-1.147122 -0.014202 0.0
-1.117245 -0.015675 0.0
-1.084532 -0.017038 0.0
-1.049224 -0.018271 0.0
-1.011588 -0.019365 0.0
-0.971906 -0.020316 0.0
-0.930472 -0.021119 0.0
-0.887592 -0.021762 0.0
-0.843583 -0.022247 0.0
-0.798740 -0.022595 0.0
-0.753306 -0.022839 0.0
-0.707465 -0.023002 0.0
-0.661397 -0.023066 0.0
-0.615303 -0.023028 0.0
-0.569328 -0.022946 0.0
-0.523478 -0.022904 0.0
-0.477633 -0.022941 0.0
-0.431765 -0.022927 0.0
-0.385919 -0.022919 0.0
-0.340006 -0.022993 0.0
-0.293602 -0.023411 0.0
-0.246363 -0.023827 0.0
-0.198475 -0.024061 0.0
-0.149583 -0.024831 0.0
-0.098827 -0.025926 0.0
-0.046450 -0.026451 0.0
0.006237 -0.026236 0.0
0.058278 -0.025805 0.0
0.109905 -0.025822 0.0
0.161719 -0.025992 0.0
0.213878 -0.026167 0.0
0.266317 -0.026272 0.0
0.318854 -0.026265 0.0
0.371235 -0.026116 0.0
0.423160 -0.025808 0.0
0.474298 -0.025330 0.0
0.524310 -0.024682 0.0
0.572862 -0.023870 0.0
0.619641 -0.022909 0.0
0.664368 -0.021818 0.0
0.706808 -0.020623 0.0
0.746783 -0.019353 0.0
0.784174 -0.018038 0.0
0.818922 -0.016710 0.0
0.851031 -0.015399 0.0
0.880561 -0.014131 0.0
0.907625 -0.012932 0.0
0.932379 -0.011822 0.0
0.955015 -0.010815 0.0
0.975752 -0.009923 0.0
0.994826 -0.009151 0.0
1.012480 -0.008503 0.0
1.028958 -0.007975 0.0
1.044493 -0.007561 0.0
1.059305 -0.007252 0.0
1.073593 -0.007036 0.0
1.087529 -0.006900 0.0
1.101254 -0.006825 0.0
1.114875 -0.006795 0.0
1.128461 -0.006790 0.0
1.142041 -0.006790 0.0
1.155603 -0.006772 0.0
1.169091 -0.006716 0.0
1.182408 -0.006601 0.0
1.195417 -0.006407 0.0
1.207941 -0.006117 0.0
1.219775 -0.005716 0.0
1.230687 -0.005196 0.0
1.240436 -0.004553 0.0
1.248783 -0.003794 0.0
1.255512 -0.002935 0.0
1.260456 -0.002010 0.0
1.263535 -0.001069 0.0
1.264808 -0.000204 0.0
1.264511 0.000501 0.0
1.262908 0.001102 0.0
1.260222 0.001585 0.0
1.256737 0.001900 0.0
1.252909 0.001928 0.0
1.249580 0.001402 0.0
1.249549 -0.001371 0.0
1.001713 0.005454 0.0
1.005185 0.010653 0.0
1.008172 0.013417 0.0
1.010077 0.015046 0.0
1.010961 0.016091 0.0
1.010970 0.016806 0.0
1.010233 0.017318 0.0
1.008850 0.017697 0.0
1.006895 0.017986 0.0
1.004425 0.018211 0.0
1.001482 0.018395 0.0
0.998097 0.018551 0.0
0.994293 0.018692 0.0
0.990084 0.018826 0.0
0.985479 0.018962 0.0
0.980483 0.019104 0.0
0.975096 0.019258 0.0
0.969317 0.019428 0.0
0.963137 0.019618 0.0
0.956547 0.019833 0.0
0.949533 0.020082 0.0
0.942073 0.020372 0.0
0.934139 0.020715 0.0
0.925695 0.021126 0.0
0.916691 0.021625 0.0
0.907059 0.022239 0.0
0.896715 0.023004 0.0
0.885541 0.023965 0.0
0.873386 0.025185 0.0
0.860046 0.026749 0.0
0.845248 0.028770 0.0
0.828625 0.031404 0.0
0.809683 0.034862 0.0
0.787746 0.039429 0.0
0.761900 0.045480 0.0
0.730907 0.053491 0.0
0.693114 0.064030 0.0
0.646368 0.077673 0.0
0.588016 0.094781 0.0
0.515189 0.114934 0.0
0.426266 0.135696 0.0
0.323225 0.145779 0.0
0.201612 0.103141 0.0
0.067253 -0.033875 0.0
0.500000 0.033867 0.0
1.000000 0.000000 0.0
1.000000 0.000000 0.0
1.000000 0.000000 0.0
1.000000 0.000000 0.0
1.000000 0.000000 0.0
0.500000 0.088597 0.0
0.027469 -0.088720 0.0
0.070619 -0.048464 0.0
0.090788 -0.012154 0.0
0.090883 0.010602 0.0
0.075340 0.022561 0.0
0.048549 0.023120 0.0
0.014060 0.019150 0.0
-0.022591 0.017661 0.0
-0.057493 0.021649 0.0
-0.094538 0.032800 0.0
-0.139241 0.049568 0.0
-0.194363 0.068740 0.0
-0.261135 0.087547 0.0
-0.339130 0.103853 0.0
-0.425329 0.114442 0.0
-0.514451 0.116354 0.0
-0.599844 0.108178 0.0
-0.674719 0.090536 0.0
-0.733405 0.065804 0.0
-0.772337 0.037429 0.0
-0.790561 0.009080 0.0
-0.789934 -0.016246 0.0
-0.774520 -0.035695 0.0
-0.749534 -0.047206 0.0
-0.720424 -0.050469 0.0
-0.692074 -0.046259 0.0
-0.668392 -0.035940 0.0
-0.652128 -0.021187 0.0
-0.644893 -0.003932 0.0
-0.647634 0.013318 0.0
-0.660678 0.029342 0.0
-0.683453 0.043708 0.0
-0.714770 0.056022 0.0
-0.753146 0.066030 0.0
-0.796961 0.073630 0.0
-0.844579 0.078851 0.0
-0.894429 0.081838 0.0
-0.945081 0.082820 0.0
-0.995289 0.082081 0.0
-1.044020 0.079933 0.0
-1.090458 0.076688 0.0
-1.133999 0.072640 0.0
-1.174227 0.068048 0.0
-1.210889 0.063123 0.0
-1.243858 0.058032 0.0
-1.273102 0.052899 0.0
-1.298661 0.047812 0.0
-1.320619 0.042832 0.0
-1.339093 0.038004 0.0
-1.354222 0.033358 0.0
-1.366159 0.028913 0.0
-1.375061 0.024666 0.0
-1.381074 0.020599 0.0
-1.384320 0.016670 0.0
-1.384883 0.012821 0.0
-1.382796 0.008986 0.0
-1.378031 0.005093 0.0
-1.370591 0.001191 0.0
-1.360664 -0.002673 0.0
-1.348399 -0.006620 0.0
-1.333772 -0.010714 0.0
-1.316726 -0.014972 0.0
-1.297161 -0.019387 0.0
-1.274966 -0.023940 0.0
-1.250049 -0.028594 0.0
-1.222347 -0.033302 0.0
-1.191837 -0.038003 0.0
-1.158536 -0.042624 0.0
-1.122517 -0.047080 0.0
-1.083909 -0.051282 0.0
-1.042893 -0.055160 0.0
-0.999687 -0.058664 0.0
-0.954530 -0.061765 0.0
-0.907669 -0.064458 0.0
-0.859348 -0.066733 0.0
-0.809837 -0.068539 0.0
-0.759439 -0.069877 0.0
-0.708428 -0.070819 0.0
-0.657007 -0.071471 0.0
-0.605283 -0.071935 0.0
-0.553383 -0.072101 0.0
-0.501530 -0.071940 0.0
-0.449889 -0.071649 0.0
-0.398431 -0.071509 0.0
-0.346900 -0.071712 0.0
-0.295257 -0.071667 0.0
-0.243612 -0.071671 0.0
-0.191987 -0.071779 0.0
-0.139926 -0.073091 0.0
-0.086861 -0.074452 0.0
-0.032493 -0.075693 0.0
0.022091 -0.076675 0.0
0.075265 -0.078012 0.0
0.127607 -0.079084 0.0
0.180663 -0.079346 0.0
0.235248 -0.079322 0.0
0.291155 -0.079838 0.0
0.347902 -0.080537 0.0
0.405291 -0.081170 0.0
0.463155 -0.081573 0.0
0.521286 -0.081633 0.0
0.579424 -0.081268 0.0
0.637269 -0.080425 0.0
0.694490 -0.079072 0.0
0.750743 -0.077206 0.0
0.805686 -0.074843 0.0
0.858995 -0.072024 0.0
0.910372 -0.068806 0.0
0.959563 -0.065265 0.0
1.006360 -0.061483 0.0
1.050612 -0.057550 0.0
1.092224 -0.053559 0.0
1.131163 -0.049597 0.0
1.167449 -0.045749 0.0
1.201156 -0.042086 0.0
1.232406 -0.038672 0.0
1.261363 -0.035557 0.0
1.288223 -0.032778 0.0
1.313210 -0.030358 0.0
1.336567 -0.028308 0.0
1.358549 -0.026628 0.0
1.379414 -0.025307 0.0
1.399419 -0.024323 0.0
1.418811 -0.023646 0.0
1.437825 -0.023239 0.0
1.456673 -0.023058 0.0
1.475543 -0.023054 0.0
1.494596 -0.023171 0.0
1.513959 -0.023352 0.0
1.533723 -0.023536 0.0
1.553941 -0.023660 0.0
1.574629 -0.023662 0.0
1.595758 -0.023484 0.0
1.617263 -0.023070 0.0
1.639038 -0.022373 0.0
1.660942 -0.021356 0.0
1.682797 -0.019998 0.0
1.704399 -0.018297 0.0
1.725514 -0.016275 0.0
1.745884 -0.013985 0.0
1.765223 -0.011512 0.0
1.783177 -0.008989 0.0
1.799302 -0.006542 0.0
1.813251 -0.004200 0.0
1.824893 -0.002070 0.0
1.834280 -0.000349 0.0
1.841684 0.000600 0.0
1.847619 0.000125 0.0
1.851809 -0.004254 0.0
1.000667 0.003074 0.0
1.002516 0.007711 0.0
1.004943 0.010945 0.0
1.007329 0.013227 0.0
1.009460 0.014896 0.0
1.011287 0.016166 0.0
1.012817 0.017165 0.0
1.014074 0.017977 0.0
1.015077 0.018657 0.0
1.015845 0.019242 0.0
1.016388 0.019764 0.0
1.016712 0.020243 0.0
1.016818 0.020698 0.0
1.016705 0.021144 0.0
1.016364 0.021591 0.0
1.015787 0.022048 0.0
1.014962 0.022525 0.0
1.013876 0.023026 0.0
1.012513 0.023561 0.0
1.010856 0.024137 0.0
1.008884 0.024765 0.0
1.006574 0.025459 0.0
1.003899 0.026236 0.0
1.000826 0.027121 0.0
0.997316 0.028144 0.0
0.993321 0.029347 0.0
0.988779 0.030783 0.0
0.983614 0.032525 0.0
0.977726 0.034669 0.0
0.970985 0.037346 0.0
0.963220 0.040736 0.0
0.954196 0.045084 0.0
0.943593 0.050728 0.0
0.930961 0.058132 0.0
0.915656 0.067928 0.0
0.896736 0.080957 0.0
0.872801 0.098293 0.0
0.841744 0.121211 0.0
0.800373 0.150966 0.0
0.743864 0.188085 0.0
0.664995 0.230337 0.0
0.552309 0.266865 0.0
0.386860 0.269117 0.0
0.143996 0.177374 0.0
0.500000 -0.177395 0.0
1.000000 0.000000 0.0
1.000000 0.000000 0.0
1.000000 0.000000 0.0
1.000000 0.000000 0.0
1.000000 0.000000 0.0
0.500000 0.131642 0.0
0.015619 -0.131809 0.0
0.037259 -0.070165 0.0
0.026589 0.000049 0.0
-0.013958 0.038851 0.0
-0.063177 0.059075 0.0
-0.115347 0.065567 0.0
-0.167499 0.063345 0.0
-0.214076 0.056695 0.0
-0.252790 0.056231 0.0
-0.289783 0.072256 0.0
-0.334323 0.099354 0.0
-0.390902 0.130654 0.0
-0.460867 0.162370 0.0
-0.543620 0.189778 0.0
-0.635665 0.206761 0.0
-0.730659 0.208152 0.0
-0.820576 0.191690 0.0
-0.897332 0.158656 0.0
-0.954388 0.113426 0.0
-0.987986 0.062336 0.0
-0.997760 0.012172 0.0
-0.986641 -0.031083 0.0
-0.960433 -0.062480 0.0
-0.925910 -0.079930 0.0
-0.888885 -0.083880 0.0
-0.853884 -0.076200 0.0
-0.824106 -0.059459 0.0
-0.801552 -0.036487 0.0
-0.787299 -0.010120 0.0
-0.782047 0.016995 0.0
-0.785960 0.042623 0.0
-0.798344 0.065587 0.0
-0.818025 0.085141 0.0
-0.843590 0.100852 0.0
-0.873526 0.112561 0.0
-0.906331 0.120341 0.0
-0.940591 0.124458 0.0
-0.975050 0.125312 0.0
-1.008648 0.123395 0.0
-1.040535 0.119237 0.0
-1.070078 0.113365 0.0
-1.096846 0.106271 0.0
-1.120582 0.098381 0.0
-1.141176 0.090046 0.0
-1.158632 0.081535 0.0
-1.173037 0.073046 0.0
-1.184530 0.064717 0.0
-1.193288 0.056642 0.0
-1.199504 0.048883 0.0
-1.203377 0.041481 0.0
-1.205100 0.034450 0.0
-1.204844 0.027774 0.0
-1.202739 0.021401 0.0
-1.198867 0.015243 0.0
-1.193248 0.009192 0.0
-1.185853 0.003132 0.0
-1.176885 -0.002785 0.0
-1.166606 -0.008650 0.0
-1.154804 -0.014561 0.0
-1.141136 -0.020666 0.0
-1.125403 -0.027027 0.0
-1.107434 -0.033675 0.0
-1.087071 -0.040612 0.0
-1.064179 -0.047802 0.0
-1.038651 -0.055177 0.0
-1.010422 -0.062650 0.0
-0.979460 -0.070126 0.0
-0.945778 -0.077484 0.0
-0.909442 -0.084575 0.0
-0.870596 -0.091241 0.0
-0.829443 -0.097370 0.0
-0.786218 -0.102885 0.0
-0.741177 -0.107740 0.0
-0.694565 -0.111956 0.0
-0.646574 -0.115549 0.0
-0.597455 -0.118352 0.0
-0.547560 -0.120357 0.0
-0.497209 -0.121702 0.0
-0.446633 -0.122584 0.0
-0.395840 -0.123340 0.0
-0.344864 -0.123573 0.0
-0.293983 -0.123203 0.0
-0.243385 -0.122626 0.0
-0.193073 -0.122303 0.0
-0.142868 -0.122654 0.0
-0.092724 -0.122512 0.0
-0.042324 -0.122871 0.0
0.008920 -0.123448 0.0
0.059539 -0.124102 0.0
0.108463 -0.125429 0.0
0.156572 -0.127193 0.0
0.204995 -0.128182 0.0
0.254602 -0.129286 0.0
0.305305 -0.130856 0.0
0.357106 -0.132430 0.0
0.410230 -0.133948 0.0
0.464667 -0.135554 0.0
0.520216 -0.137117 0.0
0.576672 -0.138436 0.0
0.633820 -0.139319 0.0
0.691406 -0.139604 0.0
0.749134 -0.139164 0.0
0.806669 -0.137908 0.0
0.863645 -0.135786 0.0
0.919686 -0.132786 0.0
0.974419 -0.128939 0.0
1.027491 -0.124308 0.0
1.078585 -0.118992 0.0
1.127428 -0.113113 0.0
1.173804 -0.106808 0.0
1.217556 -0.100229 0.0
1.258590 -0.093527 0.0
1.296873 -0.086851 0.0
1.332429 -0.080338 0.0
1.365339 -0.074113 0.0
1.395728 -0.068284 0.0
1.423765 -0.062939 0.0
1.449652 -0.058144 0.0
1.473619 -0.053946 0.0
1.495917 -0.050374 0.0
1.516806 -0.047434 0.0
1.536557 -0.045118 0.0
1.555439 -0.043399 0.0
1.573715 -0.042238 0.0
1.591636 -0.041581 0.0
1.609436 -0.041364 0.0
1.627328 -0.041511 0.0
1.645499 -0.041938 0.0
1.664105 -0.042554 0.0
1.683269 -0.043262 0.0
1.703078 -0.043961 0.0
1.723581 -0.044551 0.0
1.744786 -0.044930 0.0
1.766661 -0.045004 0.0
1.789133 -0.044686 0.0
1.812086 -0.043900 0.0
1.835364 -0.042588 0.0
1.858771 -0.040716 0.0
1.882072 -0.038272 0.0
1.904992 -0.035278 0.0
1.927222 -0.031787 0.0
1.948426 -0.027872 0.0
1.968271 -0.023629 0.0
1.986436 -0.019226 0.0
2.002624 -0.014875 0.0
2.016585 -0.010891 0.0
2.028086 -0.007761 0.0
2.036806 -0.006169 0.0
2.042206 -0.007550 0.0
1.000304 0.002103 0.0
1.001301 0.005836 0.0
1.002848 0.008845 0.0
1.004581 0.011207 0.0
1.006299 0.013067 0.0
1.007913 0.014554 0.0
1.009393 0.015766 0.0
1.010736 0.016777 0.0
1.011949 0.017641 0.0
1.013039 0.018400 0.0
1.014016 0.019087 0.0
1.014883 0.019728 0.0
1.015642 0.020347 0.0
1.016292 0.020959 0.0
1.016829 0.021580 0.0
1.017245 0.022220 0.0
1.017532 0.022890 0.0
1.017680 0.023599 0.0
1.017677 0.024355 0.0
1.017510 0.025168 0.0
1.017165 0.026052 0.0
1.016625 0.027022 0.0
1.015874 0.028099 0.0
1.014893 0.029312 0.0
1.013660 0.030696 0.0
1.012153 0.032298 0.0
1.010346 0.034181 0.0
1.008209 0.036429 0.0
1.005708 0.039153 0.0
1.002805 0.042506 0.0
0.999453 0.046695 0.0
0.995593 0.052009 0.0
0.991145 0.058853 0.0
0.985986 0.067797 0.0
0.979909 0.079645 0.0
0.972535 0.095535 0.0
0.963128 0.117057 0.0
0.950233 0.146399 0.0
0.930930 0.186453 0.0
0.899334 0.240703 0.0
0.843591 0.312332 0.0
0.740209 0.400938 0.0
0.546659 0.494042 0.0
0.210301 0.531671 0.0
0.500000 -0.531694 0.0
1.000000 0.000000 0.0
1.000000 0.000000 0.0
1.000000 0.000000 0.0
1.000000 0.000000 0.0
1.000000 0.000000 0.0
0.500000 0.137931 0.0
-0.009321 -0.138106 0.0
-0.046615 -0.048214 0.0
-0.102134 0.044286 0.0
-0.159204 0.092230 0.0
-0.221002 0.116712 0.0
-0.286218 0.125315 0.0
-0.348724 0.118254 0.0
-0.397538 0.097176 0.0
-0.424021 0.080947 0.0
-0.441885 0.102398 0.0
-0.471883 0.143749 0.0
-0.518611 0.189567 0.0
-0.581911 0.236722 0.0
-0.661784 0.278051 0.0
-0.754590 0.303340 0.0
-0.852377 0.304353 0.0
-0.944690 0.277720 0.0
-1.020980 0.225672 0.0
-1.072912 0.155397 0.0
-1.096112 0.077163 0.0
-1.090747 0.001753 0.0
-1.061876 -0.060653 0.0
-1.017997 -0.102997 0.0
-0.967527 -0.124406 0.0
-0.916973 -0.126984 0.0
-0.870827 -0.114243 0.0
-0.831823 -0.090198 0.0
-0.801309 -0.058816 0.0
-0.779682 -0.023671 0.0
-0.766697 0.012308 0.0
-0.761972 0.046497 0.0
-0.764793 0.076918 0.0
-0.773911 0.102610 0.0
-0.787990 0.123027 0.0
-0.805664 0.137996 0.0
-0.825614 0.147660 0.0
-0.846633 0.152419 0.0
-0.867677 0.152855 0.0
-0.887891 0.149664 0.0
-0.906624 0.143587 0.0
-0.923421 0.135355 0.0
-0.938009 0.125637 0.0
-0.950272 0.115013 0.0
-0.960214 0.103950 0.0
-0.967934 0.092806 0.0
-0.973589 0.081834 0.0
-0.977366 0.071199 0.0
-0.979454 0.061006 0.0
-0.980031 0.051311 0.0
-0.979243 0.042139 0.0
-0.977207 0.033479 0.0
-0.973999 0.025280 0.0
-0.969658 0.017449 0.0
-0.964184 0.009848 0.0
-0.957514 0.002297 0.0
-0.949842 -0.005040 0.0
-0.941221 -0.012201 0.0
-0.931243 -0.019491 0.0
-0.919614 -0.027150 0.0
-0.906150 -0.035210 0.0
-0.890655 -0.043710 0.0
-0.872947 -0.052669 0.0
-0.852857 -0.062071 0.0
-0.830241 -0.071852 0.0
-0.805002 -0.081893 0.0
-0.777096 -0.092069 0.0
-0.746510 -0.102254 0.0
-0.713252 -0.112297 0.0
-0.677383 -0.121968 0.0
-0.639073 -0.131004 0.0
-0.598561 -0.139273 0.0
-0.556091 -0.146678 0.0
-0.511964 -0.153115 0.0
-0.466476 -0.158681 0.0
-0.419726 -0.163564 0.0
-0.371917 -0.167265 0.0
-0.323432 -0.169822 0.0
-0.274563 -0.171457 0.0
-0.225603 -0.172364 0.0
-0.176600 -0.173356 0.0
-0.127659 -0.173474 0.0
-0.079009 -0.172832 0.0
-0.030378 -0.172227 0.0
0.018595 -0.171987 0.0
0.066689 -0.171269 0.0
0.113233 -0.170584 0.0
0.158812 -0.170777 0.0
0.203485 -0.171459 0.0
0.248217 -0.171442 0.0
0.293595 -0.172391 0.0
0.339329 -0.174074 0.0
0.385654 -0.176048 0.0
0.432975 -0.178347 0.0
0.481502 -0.181025 0.0
0.531363 -0.183923 0.0
0.582681 -0.186897 0.0
0.635480 -0.189840 0.0
0.689670 -0.192570 0.0
0.745089 -0.194858 0.0
0.801517 -0.196471 0.0
0.858670 -0.197191 0.0
0.916205 -0.196841 0.0
0.973730 -0.195290 0.0
1.030811 -0.192461 0.0
1.086997 -0.188338 0.0
1.141840 -0.182963 0.0
1.194915 -0.176432 0.0
1.245841 -0.168889 0.0
1.294297 -0.160515 0.0
1.340034 -0.151518 0.0
1.382880 -0.142117 0.0
1.422743 -0.132535 0.0
1.459605 -0.122987 0.0
1.493518 -0.113671 0.0
1.524592 -0.104764 0.0
1.552990 -0.096420 0.0
1.578911 -0.088761 0.0
1.602588 -0.081886 0.0
1.624278 -0.075861 0.0
1.644252 -0.070730 0.0
1.662791 -0.066507 0.0
1.680181 -0.063185 0.0
1.696703 -0.060735 0.0
1.712634 -0.059108 0.0
1.728237 -0.058235 0.0
1.743759 -0.058033 0.0
1.759426 -0.058402 0.0
1.775440 -0.059232 0.0
1.791973 -0.060399 0.0
1.809166 -0.061774 0.0
1.827127 -0.063219 0.0
1.845928 -0.064596 0.0
1.865602 -0.065764 0.0
1.886144 -0.066588 0.0
1.907511 -0.066941 0.0
1.929620 -0.066706 0.0
1.952345 -0.065785 0.0
1.975520 -0.064101 0.0
1.998938 -0.061605 0.0
2.022348 -0.058276 0.0
2.045456 -0.054128 0.0
2.067933 -0.049211 0.0
2.089416 -0.043619 0.0
2.109518 -0.037504 0.0
2.127829 -0.031095 0.0
2.143910 -0.024714 0.0
2.157284 -0.018814 0.0
2.167408 -0.013962 0.0
2.173678 -0.011427 0.0
1.000169 0.001631 0.0
1.000773 0.004708 0.0
1.001799 0.007401 0.0
1.003046 0.009672 0.0
1.004368 0.011563 0.0
1.005677 0.013135 0.0
1.006930 0.014452 0.0
1.008108 0.015571 0.0
1.009205 0.016538 0.0
1.010223 0.017394 0.0
1.011164 0.018175 0.0
1.012030 0.018907 0.0
1.012822 0.019616 0.0
1.013540 0.020322 0.0
1.014179 0.021041 0.0
1.014737 0.021785 0.0
1.015207 0.022567 0.0
1.015585 0.023396 0.0
1.015862 0.024283 0.0
1.016031 0.025237 0.0
1.016087 0.026273 0.0
1.016020 0.027407 0.0
1.015826 0.028660 0.0
1.015497 0.030061 0.0
1.015032 0.031645 0.0
1.014428 0.033459 0.0
1.013689 0.035566 0.0
1.012826 0.038044 0.0
1.011861 0.041003 0.0
1.010833 0.044587 0.0
1.009806 0.048993 0.0
1.008878 0.054498 0.0
1.008199 0.061492 0.0
1.007980 0.070537 0.0
1.008502 0.082460 0.0
1.010099 0.098497 0.0
1.013071 0.120528 0.0
1.017423 0.151470 0.0
1.022171 0.195937 0.0
1.023617 0.261369 0.0
1.011097 0.359929 0.0
0.956536 0.511285 0.0
0.789336 0.744446 0.0
0.332494 1.074466 0.0
0.500000 -1.074473 0.0
1.000000 0.000000 0.0
1.000000 0.000000 0.0
1.000000 0.000000 0.0
1.000000 0.000000 0.0
1.000000 0.000000 0.0
0.500000 0.085784 0.0
-0.042820 -0.085965 0.0
-0.129827 0.023947 0.0
-0.208755 0.106572 0.0
-0.278853 0.157112 0.0
-0.351696 0.186471 0.0
-0.428639 0.197716 0.0
-0.504913 0.184634 0.0
-0.557168 0.131865 0.0
-0.552206 0.067780 0.0
-0.525542 0.106765 0.0
-0.531115 0.174953 0.0
-0.562928 0.236904 0.0
-0.613881 0.303636 0.0
-0.687960 0.365089 0.0
-0.782477 0.403626 0.0
-0.886842 0.406219 0.0
-0.986496 0.367821 0.0
-1.066506 0.291871 0.0
-1.115065 0.189688 0.0
-1.126652 0.077660 0.0
-1.102346 -0.028416 0.0
-1.051068 -0.110634 0.0
-0.985747 -0.162216 0.0
-0.916508 -0.184894 0.0
-0.850275 -0.183283 0.0
-0.791445 -0.162919 0.0
-0.742453 -0.129517 0.0
-0.704109 -0.088354 0.0
-0.676032 -0.043837 0.0
-0.657141 0.000598 0.0
-0.646309 0.042650 0.0
-0.642422 0.079698 0.0
-0.644200 0.110726 0.0
-0.650364 0.135153 0.0
-0.659660 0.152840 0.0
-0.670918 0.164023 0.0
-0.683089 0.169246 0.0
-0.695285 0.169268 0.0
-0.706802 0.164981 0.0
-0.717121 0.157321 0.0
-0.725902 0.147200 0.0
-0.732968 0.135447 0.0
-0.738280 0.122776 0.0
-0.741909 0.109758 0.0
-0.744007 0.096817 0.0
-0.744771 0.084243 0.0
-0.744408 0.072204 0.0
-0.743100 0.060781 0.0
-0.740977 0.049990 0.0
-0.738109 0.039806 0.0
-0.734516 0.030183 0.0
-0.730200 0.021052 0.0
-0.725166 0.012302 0.0
-0.719379 0.003735 0.0
-0.712859 -0.004781 0.0
-0.705567 -0.012925 0.0
-0.697198 -0.021307 0.0
-0.687418 -0.030144 0.0
-0.676004 -0.039539 0.0
-0.662754 -0.049535 0.0
-0.647477 -0.060157 0.0
-0.629997 -0.071411 0.0
-0.610147 -0.083269 0.0
-0.587772 -0.095645 0.0
-0.562804 -0.108307 0.0
-0.535264 -0.121101 0.0
-0.505193 -0.133880 0.0
-0.472616 -0.146506 0.0
-0.437579 -0.158664 0.0
-0.400288 -0.169907 0.0
-0.361000 -0.180170 0.0
-0.319894 -0.189357 0.0
-0.277254 -0.197202 0.0
-0.233456 -0.203881 0.0
-0.188647 -0.209922 0.0
-0.143074 -0.214290 0.0
-0.097057 -0.217299 0.0
-0.050633 -0.219273 0.0
-0.003559 -0.220582 0.0
0.043386 -0.221086 0.0
0.089221 -0.220520 0.0
0.134189 -0.219402 0.0
0.178335 -0.218435 0.0
0.221283 -0.217700 0.0
0.263590 -0.215958 0.0
0.305863 -0.214711 0.0
0.347828 -0.214195 0.0
0.389436 -0.214323 0.0
0.431013 -0.214887 0.0
0.472915 -0.216227 0.0
0.515325 -0.218383 0.0
0.558505 -0.221243 0.0
0.602767 -0.224736 0.0
0.648384 -0.228780 0.0
0.695569 -0.233215 0.0
0.744485 -0.237840 0.0
0.795216 -0.242427 0.0
0.847749 -0.246706 0.0
0.901982 -0.250375 0.0
0.957724 -0.253123 0.0
1.014693 -0.254661 0.0
1.072527 -0.254741 0.0
1.130784 -0.253172 0.0
1.188963 -0.249838 0.0
1.246519 -0.244703 0.0
1.302893 -0.237815 0.0
1.357536 -0.229299 0.0
1.409940 -0.219352 0.0
1.459658 -0.208227 0.0
1.506331 -0.196217 0.0
1.549699 -0.183633 0.0
1.589611 -0.170794 0.0
1.626023 -0.158002 0.0
1.658992 -0.145537 0.0
1.688663 -0.133643 0.0
1.715250 -0.122525 0.0
1.739019 -0.112347 0.0
1.760275 -0.103233 0.0
1.779338 -0.095268 0.0
1.796541 -0.088500 0.0
1.812214 -0.082949 0.0
1.826682 -0.078601 0.0
1.840257 -0.075417 0.0
1.853236 -0.073336 0.0
1.865897 -0.072272 0.0
1.878499 -0.072120 0.0
1.891275 -0.072758 0.0
1.904433 -0.074047 0.0
1.918151 -0.075834 0.0
1.932576 -0.077958 0.0
1.947825 -0.080246 0.0
1.963979 -0.082524 0.0
1.981085 -0.084616 0.0
1.999155 -0.086349 0.0
2.018167 -0.087558 0.0
2.038061 -0.088090 0.0
2.058743 -0.087807 0.0
2.080083 -0.086594 0.0
2.101911 -0.084359 0.0
2.124023 -0.081043 0.0
2.146173 -0.076619 0.0
2.168076 -0.071100 0.0
2.189410 -0.064547 0.0
2.209808 -0.057077 0.0
2.228851 -0.048876 0.0
2.246051 -0.040214 0.0
2.260827 -0.031462 0.0
2.272473 -0.023084 0.0
2.279833 -0.015936 0.0
1.000107 0.001355 0.0
1.000507 0.003979 0.0
1.001224 0.006387 0.0
1.002143 0.008519 0.0
1.003167 0.010370 0.0
1.004226 0.011960 0.0
1.005277 0.013325 0.0
1.006294 0.014503 0.0
1.007267 0.015536 0.0
1.008188 0.016457 0.0
1.009056 0.017302 0.0
1.009870 0.018099 0.0
1.010628 0.018874 0.0
1.011327 0.019648 0.0
1.011964 0.020438 0.0
1.012536 0.021259 0.0
1.013037 0.022122 0.0
1.013463 0.023038 0.0
1.013811 0.024017 0.0
1.014076 0.025069 0.0
1.014255 0.026207 0.0
1.014347 0.027447 0.0
1.014352 0.028809 0.0
1.014273 0.030319 0.0
1.014117 0.032008 0.0
1.013900 0.033918 0.0
1.013643 0.036102 0.0
1.013386 0.038628 0.0
1.013187 0.041583 0.0
1.013139 0.045083 0.0
1.013382 0.049281 0.0
1.014131 0.054388 0.0
1.015710 0.060702 0.0
1.018600 0.068656 0.0
1.023517 0.078903 0.0
1.031505 0.092470 0.0
1.044059 0.111030 0.0
1.063241 0.137434 0.0
1.091713 0.176753 0.0
1.132363 0.238456 0.0
1.186539 0.341186 0.0
1.246780 0.524347 0.0
1.279373 0.865991 0.0
0.641088 1.792443 0.0
-1.844425 -0.703476 0.0
-3.657785 0.000000 0.0
-3.616522 0.000000 0.0
-3.596522 0.000000 0.0
-3.569074 0.000000 0.0
-3.514968 0.000000 0.0
-1.739255 0.021478 0.0
-0.083875 0.031445 0.0
-0.220094 0.120478 0.0
-0.313731 0.182606 0.0
-0.390602 0.228048 0.0
-0.460792 0.258567 0.0
-0.534963 0.276734 0.0
-0.624682 0.271610 0.0
-0.691935 0.164397 0.0
-0.619275 -0.042374 0.0
-0.505478 0.076457 0.0
-0.495223 0.200579 0.0
-0.517622 0.265491 0.0
-0.548482 0.356863 0.0
-0.612853 0.450312 0.0
-0.711112 0.511178 0.0
-0.827561 0.519483 0.0
-0.941334 0.467984 0.0
-1.030845 0.361230 0.0
-1.078208 0.216251 0.0
-1.075689 0.060165 0.0
-1.029101 -0.081816 0.0
-0.955286 -0.182326 0.0
-0.871712 -0.239417 0.0
-0.788774 -0.259870 0.0
-0.711856 -0.251458 0.0
-0.644087 -0.221343 0.0
-0.587585 -0.176589 0.0
-0.543286 -0.123926 0.0
-0.510698 -0.068930 0.0
-0.488298 -0.015600 0.0
-0.474131 0.033848 0.0
-0.466557 0.077039 0.0
-0.464312 0.112917 0.0
-0.466121 0.140934 0.0
-0.470784 0.161020 0.0
-0.477208 0.173525 0.0
-0.484429 0.179136 0.0
-0.491641 0.178787 0.0
-0.498219 0.173557 0.0
-0.503715 0.164560 0.0
-0.507848 0.152876 0.0
-0.510494 0.139483 0.0
-0.511659 0.125216 0.0
-0.511452 0.110740 0.0
-0.510063 0.096543 0.0
-0.507723 0.082941 0.0
-0.504678 0.070098 0.0
-0.501149 0.058051 0.0
-0.497298 0.046747 0.0
-0.493210 0.036092 0.0
-0.488891 0.025985 0.0
-0.484278 0.016322 0.0
-0.479211 0.006931 0.0
-0.473321 -0.002571 0.0
-0.466836 -0.011480 0.0
-0.459780 -0.020573 0.0
-0.451572 -0.030236 0.0
-0.441966 -0.040601 0.0
-0.430714 -0.051747 0.0
-0.417606 -0.063685 0.0
-0.402469 -0.076422 0.0
-0.385149 -0.089946 0.0
-0.365499 -0.104234 0.0
-0.343318 -0.119235 0.0
-0.318566 -0.134437 0.0
-0.291351 -0.149726 0.0
-0.261767 -0.164910 0.0
-0.229937 -0.179883 0.0
-0.195993 -0.194269 0.0
-0.160194 -0.207393 0.0
-0.122774 -0.219392 0.0
-0.083824 -0.230191 0.0
-0.043463 -0.239369 0.0
-0.001597 -0.247380 0.0
0.040929 -0.253759 0.0
0.083288 -0.258385 0.0
0.125697 -0.261629 0.0
0.168074 -0.263746 0.0
0.209993 -0.265101 0.0
0.251398 -0.264916 0.0
0.292601 -0.263728 0.0
0.333511 -0.262073 0.0
0.373865 -0.260265 0.0
0.413470 -0.258423 0.0
0.452423 -0.256496 0.0
0.490905 -0.254927 0.0
0.528968 -0.254006 0.0
0.566716 -0.253868 0.0
0.604383 -0.254586 0.0
0.642262 -0.256307 0.0
0.680639 -0.259091 0.0
0.719831 -0.262908 0.0
0.760176 -0.267679 0.0
0.801997 -0.273273 0.0
0.845578 -0.279487 0.0
0.891153 -0.286058 0.0
0.938882 -0.292669 0.0
0.988837 -0.298954 0.0
1.040994 -0.304517 0.0
1.095225 -0.308953 0.0
1.151299 -0.311875 0.0
1.208881 -0.312943 0.0
1.267540 -0.311886 0.0
1.326759 -0.308521 0.0
1.385954 -0.302771 0.0
1.444500 -0.294666 0.0
1.501752 -0.284343 0.0
1.557080 -0.272038 0.0
1.609891 -0.258070 0.0
1.659661 -0.242817 0.0
1.705959 -0.226699 0.0
1.748467 -0.210148 0.0
1.786994 -0.193587 0.0
1.821482 -0.177409 0.0
1.852001 -0.161961 0.0
1.878740 -0.147533 0.0
1.901984 -0.134353 0.0
1.922091 -0.122589 0.0
1.939464 -0.112349 0.0
1.954531 -0.103689 0.0
1.967718 -0.096620 0.0
1.979438 -0.091116 0.0
1.990079 -0.087117 0.0
2.000000 -0.084535 0.0
2.009524 -0.083258 0.0
2.018942 -0.083153 0.0
2.028508 -0.084067 0.0
2.038442 -0.085830 0.0
2.048930 -0.088258 0.0
2.060125 -0.091155 0.0
2.072144 -0.094317 0.0
2.085073 -0.097536 0.0
2.098964 -0.100601 0.0
2.113836 -0.103307 0.0
2.129678 -0.105454 0.0
2.146445 -0.106856 0.0
2.164063 -0.107341 0.0
2.182423 -0.106760 0.0
2.201387 -0.104986 0.0
2.220783 -0.101923 0.0
2.240401 -0.097507 0.0
2.260001 -0.091715 0.0
2.279300 -0.084565 0.0
2.297974 -0.076129 0.0
2.315641 -0.066533 0.0